                  Welcome to Q-Chem
     A Quantum Leap Into The Future Of Chemistry

 Y. Shao, L. Fusti-Molnar, Y. Jung, J. Kussmann, C. Ochsenfeld, S. T. Brown, 
 A. T. B. Gilbert, L. V. Slipchenko, S. V. Levchenko, D. P. O'Neill, 
 R. A. DiStasio Jr., R. C. Lochan, T. Wang, G. J. O. Beran, N. A. Besley, 
 J. M. Herbert, C. Y. Lin, T. Van Voorhis, S. H. Chien, A. Sodt, R. P. Steele, 
 V. A. Rassolov, P. E. Maslen, P. P. Korambath, R. D. Adamson, B. Austin, 
 J. Baker, E. F. C. Byrd, H. Dachsel, R. J. Doerksen, A. Dreuw, B. D. Dunietz, 
 A. D. Dutoi, T. R. Furlani, S. R. Gwaltney, A. Heyden, S. Hirata, C.-P. Hsu, 
 G. Kedziora, R. Z. Khaliullin, P. Klunzinger, A. M. Lee, M. S. Lee, W. Liang, 
 I. Lotan, N. Nair, B. Peters, E. I. Proynov, P. A. Pieniazek, Y. M. Rhee, 
 J. Ritchie, E. Rosta, C. D. Sherrill, A. C. Simmonett, J. E. Subotnik, 
 H. L. Woodcock III, W. Zhang, A. T. Bell, A. K. Chakraborty, D. M. Chipman, 
 F. J. Keil, A. Warshel, W. J. Hehre, H. F. Schaefer III, J. Kong, 
 A. I. Krylov, P. M. W. Gill, M. Head-Gordon

 Additional authors for Version 3.1: 
 Z. Gan, Y. Zhao, N. E. Schultz, D. Truhlar, E. Epifanovsky, M. Oana

 Additional authors for Version 3.2: 
 R. Baer, B. R. Brooks, D. Casanova, J.-D. Chai, C.-L. Cheng, C. Cramer, 
 D. Crittenden, A. Ghysels, G. Hawkins, E. G. Hohenstein, C. Kelley, 
 W. Kurlancheek, D. Liotard, E. Livshits, P. Manohar, A. Marenich, 
 D. Neuhauser, R. Olson, M. A. Rohrdanz, K. S. Thanthiriwatte, A. J. W. Thom, 
 V. Vanovschi, C. F. Williams, Q. Wu, Z.-Q. You

 Additional authors for Version 4.0: 
 A. Aspuru-Guzik, Y. Bernard, C. Chang, J. Deng, A. Dreuw, M. Diedenhofen, 
 R. G. Edgar, D. Ghosh, W. A. Goddard III, M. Goldey, L. D. Jacobson, 
 M. Gordon, B. Kaduk, I. Kaliman, K. Khistyaev, R. King, A. Klamt, 
 D. Kosenkov, T. Kus, D. Lambrecht, A. Landau, A. W. Lange, K. Lawler, F. Liu, 
 J. Liu, R. Olivares-Amaya, S. P. Mao, J. Parkhill, N. Russ, M. Schmidt, 
 N. Shenvi, D. Small, Y. C. Su, E. Sundstrom, L. Vogt, O. Vydrov, M. Watson, 
 M. Wormit, X. Xu, S. Yeganeh, I. Y. Zhang, D. Zuev

 Additional authors for Version 4.1: 
 X. Feng, M. W. D. Hanson-Heine, P. Horn, H. Ji, A. Laurent, R. Peverati, 
 N. Mardirossian, N. Sergueev, S. Sharada, P. Zimmerman

 Q-Chem, Version 4.1, Q-Chem, Inc., Pittsburgh, PA (2013).

 Parts of Q-Chem use Armadillo 4.100.2 (Dirt Cruiser).
 http://arma.sourceforge.net/

 MAC (Intel) OSX Version 4.1.2

 Q-chem begins on Wed May  7 14:18:59 2014  

Deborahs-MacBook-Air.local
Host: 0

     Scratch files written to /tmp/qchem30853//
 Apr1114 |Users|Deb|Programs|trunk|libmdc|qstr_info.C -1
Finally everything over in PARseQInput

--------------------------------------------------------------
User input:
--------------------------------------------------------------
$molecule
-1 1
F 0.000000 0.000000 -2.537929
C 0.000000 0.000000 -0.488372
H 1.062087 0.000000 -0.614972
H -0.531044 0.919794 -0.614972
H -0.531044 -0.919794 -0.614972
Cl 0.000000 0.000000 1.624501
$end

$rem
JOBTYPE OPT
EXCHANGE HF
CORRELATION MP2
BASIS 6-311G**
$end

$opt
CONSTRAINT
stre 1 2 2.09
ENDCONSTRAINT
$end
--------------------------------------------------------------
 Atom   1: (  0.0000000436,  0.0000000000,  2.5379292286)
         ->(  0.0000000109, -0.0000000189,  2.5379292286)
 Atom   1: (  0.0000000109, -0.0000000189,  2.5379292286)
         ->(  0.0000000109,  0.0000000000,  2.5379292286)
 Atom   1: (  0.0000000109,  0.0000000000,  2.5379292286)
         ->(  0.0000000027,  0.0000000047,  2.5379292286)
 Atom   1: (  0.0000000027,  0.0000000047,  2.5379292286)
         ->( -0.0000000014,  0.0000000024,  2.5379292286)
 Atom   2: (  0.0000000315,  0.0000000000,  0.4883722286)
         ->(  0.0000000079, -0.0000000136,  0.4883722286)
 Atom   2: (  0.0000000079, -0.0000000136,  0.4883722286)
         ->(  0.0000000079,  0.0000000000,  0.4883722286)
 Atom   2: (  0.0000000079,  0.0000000000,  0.4883722286)
         ->(  0.0000000020,  0.0000000034,  0.4883722286)
 Atom   2: (  0.0000000020,  0.0000000034,  0.4883722286)
         ->( -0.0000000010,  0.0000000017,  0.4883722286)
 Atom   4: ( -0.5310439678, -0.9197940000,  0.6149722317)
         ->( -0.5310435161, -0.9197943509,  0.6149722223)
 Atom   5: ( -0.5310439678,  0.9197940000,  0.6149722317)
         ->( -0.5310435161,  0.9197943509,  0.6149722223)
 Atom   6: (  0.0000000189,  0.0000000000, -1.6245007714)
         ->(  0.0000000047, -0.0000000082, -1.6245007714)
 Atom   6: (  0.0000000047, -0.0000000082, -1.6245007714)
         ->(  0.0000000047,  0.0000000000, -1.6245007714)
 Atom   6: (  0.0000000047,  0.0000000000, -1.6245007714)
         ->(  0.0000000012,  0.0000000021, -1.6245007714)
 ----------------------------------------------------------------
             Standard Nuclear Orientation (Angstroms)
    I     Atom           X                Y                Z
 ----------------------------------------------------------------
    1      F      -0.0000000014     0.0000000024     2.5379292286
    2      C      -0.0000000010     0.0000000017     0.4883722286
    3      H       1.0620870322     0.0000000000     0.6149722223
    4      H      -0.5310435161    -0.9197943509     0.6149722223
    5      H      -0.5310435161     0.9197943509     0.6149722223
    6      Cl      0.0000000012     0.0000000021    -1.6245007714
 ----------------------------------------------------------------
 Molecular Point Group                 C3v   NOp =  6
 Largest Abelian Subgroup              Cs    NOp =  2
 Nuclear Repulsion Energy =    86.1006736723 hartrees
 There are       18 alpha and       18 beta electrons
 Requested basis set is 6-311G(d,p)
 There are 34 shells and 80 basis functions

Total QAlloc Memory Limit   2000 MB
Mega-Array Size        61 MB
MEM_STATIC part        62 MB
 A cutoff of  1.0D-11 yielded    558 shell pairs
 There are      3066 function pairs (      3293 Cartesian)
 Smallest overlap matrix eigenvalue = 1.07E-02

  Scale SEOQF with 1.000000e+00/1.000000e+00/1.000000e-01

 Standard Electronic Orientation quadrupole field applied
 Nucleus-field energy     =    -0.0000000095 hartrees
 Guess from superposition of atomic densities
 Warning:  Energy on first SCF cycle will be non-variational
 A restricted Hartree-Fock SCF calculation will be
 performed using Pulay DIIS extrapolation
 SCF converges when DIIS error is below 1.0E-08
 ---------------------------------------
  Cycle       Energy         DIIS Error
 ---------------------------------------
    1    -636.7756326087      2.21E+00
    2    -597.9266567937      4.31E-02
    3    -598.4805857336      1.25E-02
    4    -598.5535481454      6.24E-03
    5    -598.5719417605      7.13E-04
    6    -598.5734039318      2.68E-04
    7    -598.5735782090      8.63E-05
    8    -598.5735946887      2.49E-05
    9    -598.5735958661      3.26E-06
   10    -598.5735958826      5.97E-07
   11    -598.5735958834      1.69E-07
   12    -598.5735958834      5.35E-08
   13    -598.5735958834      2.40E-08
   14    -598.5735958834      1.28E-08
   15    -598.5735958834      2.31E-09 Convergence criterion met
 ---------------------------------------
 SCF time:  CPU 1.98 s  wall 1.97 s
 SCF   energy in the final basis set = -598.5735958834
 Total energy in the final basis set = -598.5735958834

 Components of the MP2 correlation energy:
        aaaa  correlation energy =        -0.0709759885 au
        abab  correlation energy =        -0.4516078436 au
        bbbb  correlation energy =        -0.0709759885 au
        non-Brillouin singles    =        -0.0000000000 au

 Total  MP2   correlation energy =        -0.5935598205 au
        MP2         total energy =      -599.1671557039 au

  Entering Z-vector solver.
OV_DIM:  Setting MaxSz  = 1116
OV_DIM:  Setting MaxSpc = 1116
   1         0           1      0.000557    0.000557
   2         0           1      0.000175    0.000175
   3         0           1      0.000061    0.000061
   4         0           1      0.000017    0.000017
   5         0           1      0.000004    0.000004
   6         1           0      0.000000    0.000000    Roots Converged
 Analysis of SCF Wavefunction

 --------------------------------------------------------------
             Orbital Energies (a.u.) and Symmetries
 --------------------------------------------------------------

 Alpha MOs, Restricted
 -- Occupied --                  
-104.60  -25.86  -11.14  -10.33   -7.79   -7.79   -7.79   -1.14
  1 A1    2 A1    3 A1    4 A1    5 A1    1 E     1 E     6 A1                 
 -0.876  -0.745  -0.452  -0.452  -0.308  -0.250  -0.250  -0.236
  7 A1    8 A1    2 E     2 E     9 A1    3 E     3 E     4 E                  
 -0.236  -0.203
  4 E    10 A1                                                                 
 -- Virtual --                   
  0.320   0.357   0.383   0.383   0.580   0.613   0.613   0.628
 11 A1   12 A1    5 E     5 E    13 A1    6 E     6 E     7 E                  
  0.628   0.843   0.915   0.950   0.950   1.151   1.192   1.305
  7 E    14 A1   15 A1    8 E     8 E    16 A1   17 A1    9 E                  
  1.305   1.374   1.374   1.470   1.470   1.472   1.616   1.660
  9 E    10 E    10 E    11 E    11 E    18 A1   19 A1   12 E                  
  1.660   1.824   1.874   1.874   1.932   2.168   2.237   2.237
 12 E     1 A2   13 E    13 E    20 A1   21 A1   14 E    14 E                  
  2.458   2.458   2.481   2.719   2.719   2.768   2.901   2.901
 15 E    15 E    22 A1   16 E    16 E    23 A1   17 E    17 E                  
  2.998   3.118   3.118   3.431   3.445   4.280   4.280   4.629
 24 A1   18 E    18 E    25 A1   26 A1   19 E    19 E    20 E                  
  4.629   4.633   4.633   4.722   7.084   7.084   7.203  10.402
 20 E    21 E    21 E    27 A1   22 E    22 E    28 A1   29 A1                 
 25.183  26.503  26.503  26.939  69.066 219.225
 30 A1   23 E    23 E    31 A1   32 A1   33 A1                                 

 Beta MOs, Restricted
 -- Occupied --                  
-104.60  -25.86  -11.14  -10.33   -7.79   -7.79   -7.79   -1.14
  1 A1    2 A1    3 A1    4 A1    5 A1    1 E     1 E     6 A1                 
 -0.876  -0.745  -0.452  -0.452  -0.308  -0.250  -0.250  -0.236
  7 A1    8 A1    2 E     2 E     9 A1    3 E     3 E     4 E                  
 -0.236  -0.203
  4 E    10 A1                                                                 
 -- Virtual --                   
  0.320   0.357   0.383   0.383   0.580   0.613   0.613   0.628
 11 A1   12 A1    5 E     5 E    13 A1    6 E     6 E     7 E                  
  0.628   0.843   0.915   0.950   0.950   1.151   1.192   1.305
  7 E    14 A1   15 A1    8 E     8 E    16 A1   17 A1    9 E                  
  1.305   1.374   1.374   1.470   1.470   1.472   1.616   1.660
  9 E    10 E    10 E    11 E    11 E    18 A1   19 A1   12 E                  
  1.660   1.824   1.874   1.874   1.932   2.168   2.237   2.237
 12 E     1 A2   13 E    13 E    20 A1   21 A1   14 E    14 E                  
  2.458   2.458   2.481   2.719   2.719   2.768   2.901   2.901
 15 E    15 E    22 A1   16 E    16 E    23 A1   17 E    17 E                  
  2.998   3.118   3.118   3.431   3.445   4.280   4.280   4.629
 24 A1   18 E    18 E    25 A1   26 A1   19 E    19 E    20 E                  
  4.629   4.633   4.633   4.722   7.084   7.084   7.203  10.402
 20 E    21 E    21 E    27 A1   22 E    22 E    28 A1   29 A1                 
 25.183  26.503  26.503  26.939  69.066 219.225
 30 A1   23 E    23 E    31 A1   32 A1   33 A1                                 
 --------------------------------------------------------------

          Ground-State Mulliken Net Atomic Charges

     Atom                 Charge (a.u.)
  ----------------------------------------
      1 F                    -0.724262
      2 C                    -0.125625
      3 H                     0.139079
      4 H                     0.139079
      5 H                     0.139079
      6 Cl                   -0.567350
  ----------------------------------------
  Sum of atomic charges =    -1.000000

 -----------------------------------------------------------------
                    Cartesian Multipole Moments
 -----------------------------------------------------------------
    Charge (ESU x 10^10)
                -4.8032
    Dipole Moment (Debye)
         X       0.0000      Y      -0.0000      Z      -2.9206
       Tot       2.9206
    Quadrupole Moments (Debye-Ang)
        XX     -27.4473     XY       0.0000     YY     -27.4473
        XZ       0.0000     YZ      -0.0000     ZZ     -58.7597
    Octopole Moments (Debye-Ang^2)
       XXX       0.8893    XXY      -0.0000    XYY      -0.8893
       YYY      -0.0000    XXZ       7.1267    XYZ       0.0000
       YYZ       7.1267    XZZ       0.0000    YZZ      -0.0000
       ZZZ     -27.2119
    Hexadecapole Moments (Debye-Ang^3)
      XXXX     -37.8829   XXXY       0.0000   XXYY     -12.6276
      XYYY       0.0000   YYYY     -37.8829   XXXZ       0.4884
      XXYZ       0.0000   XYYZ      -0.4884   YYYZ       0.0000
      XXZZ     -91.6199   XYZZ       0.0000   YYZZ     -91.6199
      XZZZ       0.0000   YZZZ      -0.0000   ZZZZ    -661.4478
 -----------------------------------------------------------------
 DrvMan is completing analytic gradient of the MP2 energy
 MP2 relaxed dipole moment
            1
    1   0.0000000
    2  -0.0000000
    3  -1.1490672
	Magnitude:	 1.149 au	 2.921 Debye
 MP2 energy read as -599.167156
 Full Analytical Gradient of MP2 Energy (in au.)
             1             2             3             4             5
    1   -0.00000000   -0.00000000   -0.00180362    0.00090181    0.00090181
    2    0.00000000    0.00000000   -0.00000000    0.00156198   -0.00156199
    3    0.01013535   -0.01000160   -0.00072550   -0.00072550   -0.00072550
             6
    1   -0.00000000
    2   -0.00000000
    3    0.00204274
 Gradient time:  CPU 0.01 s  wall 0.01 s
 Geometry Optimization Parameters
   NAtoms,    NIC,     NZ,  NCons,   NDum,   NFix, NCnnct, MaxDiis
        6      63       0       1       0       0       0       0


** CONSTRAINED OPTIMIZATION IN DELOCALIZED INTERNAL COORDINATES **
   Searching for a Minimum

   Optimization Cycle:   1

                       Coordinates (Angstroms)
     ATOM                X               Y               Z
      1  F         0.0000000000    0.0000000000    2.5379292286
      2  C         0.0000000000    0.0000000000    0.4883722286
      3  H         1.0620870322    0.0000000000    0.6149722223
      4  H        -0.5310435161   -0.9197943509    0.6149722223
      5  H        -0.5310435161    0.9197943509    0.6149722223
      6  Cl        0.0000000000    0.0000000000   -1.6245007714
   Point Group: c3v   Number of degrees of freedom:     4


   Energy is   -599.167155704

              Constraints and their Current Values
                                        Value     Constraint
   Distance(Angs):        1   2             2.049557     2.090000

 Attempting to Generate Delocalized Internal Coordinates
 GETINT wrote B to file, NVib is           12
 GETINT wrote B to file, NVib is            4
 calling HSSCONV
 HCONV 3*NATOMS:           18
 wrote HINT to file
  writing hessian 

   Using Lagrange Multiplier Algorithm


  5 Hessian modes will be used to form the next step
  Hessian Eigenvalues:
    -0.960797    0.069437    0.114964    0.309775    1.040803

 Minimum Search - Taking P-RFO Step
 Searching for Lamda that Maximizes Along the Constraint modes Only
 Value Taken    Lamda =   0.00400352
 Searching for Lamda that Minimizes Along All other modes
 Value Taken    Lamda =  -0.00206158
 Step Taken.  Stepsize is  0.078949

                             Maximum     Tolerance    Cnvgd?
         Gradient           0.076426      0.000300      NO
         Displacement       0.076178      0.001200      NO
         Energy change     *********      0.000001      NO


 New Cartesian Coordinates Obtained by Inverse Iteration

 Displacement from previous Coordinates is:  0.070886
 ----------------------------------------------------------------
             Standard Nuclear Orientation (Angstroms)
    I     Atom           X                Y                Z
 ----------------------------------------------------------------
    1      F       0.0000000000     0.0000000000     2.5670414251
    2      C       0.0000000000     0.0000000000     0.4771729027
    3      H       1.0598990615     0.0000000000     0.6158133894
    4      H      -0.5299495308    -0.9178995127     0.6158133894
    5      H      -0.5299495308     0.9178995127     0.6158133894
    6      Cl      0.0000000000     0.0000000000    -1.6449371435
 ----------------------------------------------------------------
 Molecular Point Group                 C3v   NOp =  6
 Largest Abelian Subgroup              Cs    NOp =  2
 Nuclear Repulsion Energy =    85.3497464660 hartrees
 There are       18 alpha and       18 beta electrons
 Applying Cartesian multipole field
    Component          Value
    ---------          -----
     (2,0,0)        1.00000E-10
     (0,2,0)        2.00000E-10
     (0,0,2)       -3.00000E-11
 Nucleus-field energy     =    -0.0000000097 hartrees
 Requested basis set is 6-311G(d,p)
 There are 34 shells and 80 basis functions
 A cutoff of  1.0D-11 yielded    558 shell pairs
 There are      3066 function pairs (      3293 Cartesian)
 Smallest overlap matrix eigenvalue = 1.08E-02
 Guess MOs from SCF MO coefficient file
Reading MOs from coefficient file
Reading MOs from coefficient file
 A restricted Hartree-Fock SCF calculation will be
 performed using Pulay DIIS extrapolation
 SCF converges when DIIS error is below 1.0E-08
Geometry optimization detected.  Setting ReadMinima to 0
Setting SaveMinima to 0
 ---------------------------------------
  Cycle       Energy         DIIS Error
 ---------------------------------------
    1    -598.5717516687      7.57E-04
    2    -598.5734624931      1.31E-04
    3    -598.5734798470      6.02E-05
    4    -598.5734829449      2.08E-05
    5    -598.5734835884      6.67E-06
    6    -598.5734836901      2.44E-06
    7    -598.5734836998      5.63E-07
    8    -598.5734837005      1.02E-07
    9    -598.5734837006      3.19E-08
   10    -598.5734837006      6.10E-09 Convergence criterion met
 ---------------------------------------
 SCF time:  CPU 1.69 s  wall 1.70 s
 SCF   energy in the final basis set = -598.5734837006
 Total energy in the final basis set = -598.5734837006

 Components of the MP2 correlation energy:
        aaaa  correlation energy =        -0.0708169812 au
        abab  correlation energy =        -0.4512259730 au
        bbbb  correlation energy =        -0.0708169812 au
        non-Brillouin singles    =        -0.0000000000 au

 Total  MP2   correlation energy =        -0.5928599355 au
        MP2         total energy =      -599.1663436360 au

  Entering Z-vector solver.
OV_DIM:  Setting MaxSz  = 1116
OV_DIM:  Setting MaxSpc = 1116
   1         0           1      0.000559    0.000559
   2         0           1      0.000176    0.000176
   3         0           1      0.000061    0.000061
   4         0           1      0.000017    0.000017
   5         0           1      0.000004    0.000004
   6         1           0      0.000000    0.000000    Roots Converged
 Analysis of SCF Wavefunction

 --------------------------------------------------------------
             Orbital Energies (a.u.) and Symmetries
 --------------------------------------------------------------

 Alpha MOs, Restricted
 -- Occupied --                  
-104.61  -25.86  -11.14  -10.33   -7.80   -7.80   -7.80   -1.13
  1 A1    2 A1    3 A1    4 A1    5 A1    1 E     1 E     6 A1                 
 -0.878  -0.749  -0.453  -0.453  -0.306  -0.250  -0.250  -0.235
  7 A1    8 A1    2 E     2 E     9 A1    3 E     3 E     4 E                  
 -0.235  -0.203
  4 E    10 A1                                                                 
 -- Virtual --                   
  0.318   0.350   0.382   0.382   0.577   0.610   0.610   0.626
 11 A1   12 A1    5 E     5 E    13 A1    6 E     6 E     7 E                  
  0.626   0.842   0.917   0.948   0.948   1.145   1.187   1.306
  7 E    14 A1   15 A1    8 E     8 E    16 A1   17 A1    9 E                  
  1.306   1.371   1.371   1.469   1.469   1.471   1.615   1.652
  9 E    10 E    10 E    11 E    11 E    18 A1   19 A1   12 E                  
  1.652   1.824   1.872   1.872   1.934   2.147   2.226   2.226
 12 E     1 A2   13 E    13 E    20 A1   21 A1   14 E    14 E                  
  2.464   2.464   2.477   2.716   2.716   2.767   2.901   2.901
 15 E    15 E    22 A1   16 E    16 E    23 A1   17 E    17 E                  
  2.990   3.113   3.113   3.426   3.441   4.278   4.278   4.633
 24 A1   18 E    18 E    25 A1   26 A1   19 E    19 E    20 E                  
  4.633   4.636   4.636   4.716   7.086   7.086   7.206  10.395
 20 E    21 E    21 E    27 A1   22 E    22 E    28 A1   29 A1                 
 25.182  26.498  26.498  26.923  69.066 219.218
 30 A1   23 E    23 E    31 A1   32 A1   33 A1                                 

 Beta MOs, Restricted
 -- Occupied --                  
-104.61  -25.86  -11.14  -10.33   -7.80   -7.80   -7.80   -1.13
  1 A1    2 A1    3 A1    4 A1    5 A1    1 E     1 E     6 A1                 
 -0.878  -0.749  -0.453  -0.453  -0.306  -0.250  -0.250  -0.235
  7 A1    8 A1    2 E     2 E     9 A1    3 E     3 E     4 E                  
 -0.235  -0.203
  4 E    10 A1                                                                 
 -- Virtual --                   
  0.318   0.350   0.382   0.382   0.577   0.610   0.610   0.626
 11 A1   12 A1    5 E     5 E    13 A1    6 E     6 E     7 E                  
  0.626   0.842   0.917   0.948   0.948   1.145   1.187   1.306
  7 E    14 A1   15 A1    8 E     8 E    16 A1   17 A1    9 E                  
  1.306   1.371   1.371   1.469   1.469   1.471   1.615   1.652
  9 E    10 E    10 E    11 E    11 E    18 A1   19 A1   12 E                  
  1.652   1.824   1.872   1.872   1.934   2.147   2.226   2.226
 12 E     1 A2   13 E    13 E    20 A1   21 A1   14 E    14 E                  
  2.464   2.464   2.477   2.716   2.716   2.767   2.901   2.901
 15 E    15 E    22 A1   16 E    16 E    23 A1   17 E    17 E                  
  2.990   3.113   3.113   3.426   3.441   4.278   4.278   4.633
 24 A1   18 E    18 E    25 A1   26 A1   19 E    19 E    20 E                  
  4.633   4.636   4.636   4.716   7.086   7.086   7.206  10.395
 20 E    21 E    21 E    27 A1   22 E    22 E    28 A1   29 A1                 
 25.182  26.498  26.498  26.923  69.066 219.218
 30 A1   23 E    23 E    31 A1   32 A1   33 A1                                 
 --------------------------------------------------------------

          Ground-State Mulliken Net Atomic Charges

     Atom                 Charge (a.u.)
  ----------------------------------------
      1 F                    -0.731650
      2 C                    -0.132937
      3 H                     0.140892
      4 H                     0.140892
      5 H                     0.140892
      6 Cl                   -0.558088
  ----------------------------------------
  Sum of atomic charges =    -1.000000

 -----------------------------------------------------------------
                    Cartesian Multipole Moments
 -----------------------------------------------------------------
    Charge (ESU x 10^10)
                -4.8032
    Dipole Moment (Debye)
         X       0.0000      Y      -0.0000      Z      -3.1943
       Tot       3.1943
    Quadrupole Moments (Debye-Ang)
        XX     -27.4308     XY      -0.0000     YY     -27.4308
        XZ       0.0000     YZ       0.0000     ZZ     -59.5188
    Octopole Moments (Debye-Ang^2)
       XXX       0.8907    XXY       0.0000    XYY      -0.8907
       YYY      -0.0000    XXZ       7.2261    XYZ      -0.0000
       YYZ       7.2261    XZZ       0.0000    YZZ      -0.0000
       ZZZ     -29.6728
    Hexadecapole Moments (Debye-Ang^3)
      XXXX     -37.7832   XXXY      -0.0000   XXYY     -12.5944
      XYYY      -0.0000   YYYY     -37.7832   XXXZ       0.4978
      XXYZ       0.0000   XYYZ      -0.4978   YYYZ       0.0000
      XXZZ     -93.3424   XYZZ       0.0000   YYZZ     -93.3424
      XZZZ       0.0000   YZZZ       0.0000   ZZZZ    -679.9062
 -----------------------------------------------------------------
 DrvMan is completing analytic gradient of the MP2 energy
 MP2 relaxed dipole moment
            1
    1   0.0000000
    2  -0.0000000
    3  -1.2567305
	Magnitude:	 1.257 au	 3.194 Debye
 MP2 energy read as -599.166344
 Full Analytical Gradient of MP2 Energy (in au.)
             1             2             3             4             5
    1    0.00000000    0.00000000   -0.00251192    0.00125596    0.00125596
    2   -0.00000000    0.00000000    0.00000000    0.00217539   -0.00217539
    3    0.01152551   -0.00588758   -0.00079646   -0.00079646   -0.00079646
             6
    1   -0.00000000
    2   -0.00000000
    3   -0.00324854
 Gradient time:  CPU 0.01 s  wall 0.01 s
 Geometry Optimization Parameters
   NAtoms,    NIC,     NZ,  NCons,   NDum,   NFix, NCnnct, MaxDiis
        6      63       0       1       0       0       0       0

 Cartesian Hessian Update
 Hessian Updated using BFGS Update


** CONSTRAINED OPTIMIZATION IN DELOCALIZED INTERNAL COORDINATES **
   Searching for a Minimum

   Optimization Cycle:   2

                       Coordinates (Angstroms)
     ATOM                X               Y               Z
      1  F         0.0000000000    0.0000000000    2.5670414251
      2  C         0.0000000000    0.0000000000    0.4771729027
      3  H         1.0598990615    0.0000000000    0.6158133894
      4  H        -0.5299495308   -0.9178995127    0.6158133894
      5  H        -0.5299495308    0.9178995127    0.6158133894
      6  Cl        0.0000000000    0.0000000000   -1.6449371435
   Point Group: c3v   Number of degrees of freedom:     4


   Energy is   -599.166343636

              Constraints and their Current Values
                                        Value     Constraint
   Distance(Angs):        1   2             2.089869     2.090000
 GETINT wrote B to file, NVib is            4
 Hessian Updated using BFGS Update

   Using Lagrange Multiplier Algorithm


  5 Hessian modes will be used to form the next step
  Hessian Eigenvalues:
    -0.989716    0.069070    0.224286    0.318999    1.012728

 Minimum Search - Taking P-RFO Step
 Searching for Lamda that Maximizes Along the Constraint modes Only
 Value Taken    Lamda =   0.00000926
 Searching for Lamda that Minimizes Along All other modes
 Value Taken    Lamda =  -0.00009855
 Step Taken.  Stepsize is  0.017564

                             Maximum     Tolerance    Cnvgd?
         Gradient           0.004491      0.000300      NO
         Displacement       0.013415      0.001200      NO
         Energy change      0.000812      0.000001      NO


 New Cartesian Coordinates Obtained by Inverse Iteration

 Displacement from previous Coordinates is:  0.013200
 ----------------------------------------------------------------
             Standard Nuclear Orientation (Angstroms)
    I     Atom           X                Y                Z
 ----------------------------------------------------------------
    1      F       0.0000000000     0.0000000000     2.5651797546
    2      C       0.0000000000     0.0000000000     0.4751798971
    3      H       1.0627853853     0.0000000000     0.6157504489
    4      H      -0.5313926926    -0.9203991424     0.6157504489
    5      H      -0.5313926926     0.9203991424     0.6157504489
    6      Cl      0.0000000000     0.0000000000    -1.6408936459
 ----------------------------------------------------------------
 Molecular Point Group                 C3v   NOp =  6
 Largest Abelian Subgroup              Cs    NOp =  2
 Nuclear Repulsion Energy =    85.4315719281 hartrees
 There are       18 alpha and       18 beta electrons
 Applying Cartesian multipole field
    Component          Value
    ---------          -----
     (2,0,0)        1.00000E-10
     (0,2,0)        2.00000E-10
     (0,0,2)       -3.00000E-11
 Nucleus-field energy     =    -0.0000000097 hartrees
 Requested basis set is 6-311G(d,p)
 There are 34 shells and 80 basis functions
 A cutoff of  1.0D-11 yielded    558 shell pairs
 There are      3066 function pairs (      3293 Cartesian)
 Smallest overlap matrix eigenvalue = 1.09E-02
 Guess MOs from SCF MO coefficient file
Reading MOs from coefficient file
Reading MOs from coefficient file
 A restricted Hartree-Fock SCF calculation will be
 performed using Pulay DIIS extrapolation
 SCF converges when DIIS error is below 1.0E-08
Geometry optimization detected.  Setting ReadMinima to 0
Setting SaveMinima to 0
 ---------------------------------------
  Cycle       Energy         DIIS Error
 ---------------------------------------
    1    -598.5703846144      2.87E-04
    2    -598.5732623303      6.03E-05
    3    -598.5732657013      2.41E-05
    4    -598.5732662498      5.29E-06
    5    -598.5732663139      2.01E-06
    6    -598.5732663235      7.54E-07
    7    -598.5732663246      2.72E-07
    8    -598.5732663247      4.54E-08
    9    -598.5732663247      1.12E-08
   10    -598.5732663247      3.15E-09 Convergence criterion met
 ---------------------------------------
 SCF time:  CPU 1.68 s  wall 1.69 s
 SCF   energy in the final basis set = -598.5732663247
 Total energy in the final basis set = -598.5732663247

 Components of the MP2 correlation energy:
        aaaa  correlation energy =        -0.0708564030 au
        abab  correlation energy =        -0.4514261225 au
        bbbb  correlation energy =        -0.0708564030 au
        non-Brillouin singles    =        -0.0000000000 au

 Total  MP2   correlation energy =        -0.5931389285 au
        MP2         total energy =      -599.1664052532 au

  Entering Z-vector solver.
OV_DIM:  Setting MaxSz  = 1116
OV_DIM:  Setting MaxSpc = 1116
   1         0           1      0.000557    0.000557
   2         0           1      0.000175    0.000175
   3         0           1      0.000060    0.000060
   4         0           1      0.000017    0.000017
   5         0           1      0.000004    0.000004
   6         1           0      0.000000    0.000000    Roots Converged
 Analysis of SCF Wavefunction

 --------------------------------------------------------------
             Orbital Energies (a.u.) and Symmetries
 --------------------------------------------------------------

 Alpha MOs, Restricted
 -- Occupied --                  
-104.61  -25.86  -11.14  -10.33   -7.80   -7.80   -7.80   -1.13
  1 A1    2 A1    3 A1    4 A1    5 A1    1 E     1 E     6 A1                 
 -0.878  -0.747  -0.452  -0.452  -0.307  -0.250  -0.250  -0.234
  7 A1    8 A1    2 E     2 E     9 A1    3 E     3 E     4 E                  
 -0.234  -0.203
  4 E    10 A1                                                                 
 -- Virtual --                   
  0.319   0.351   0.383   0.383   0.577   0.611   0.611   0.626
 11 A1   12 A1    5 E     5 E    13 A1    6 E     6 E     7 E                  
  0.626   0.840   0.916   0.947   0.947   1.147   1.187   1.305
  7 E    14 A1   15 A1    8 E     8 E    16 A1   17 A1    9 E                  
  1.305   1.370   1.370   1.469   1.470   1.470   1.616   1.653
  9 E    10 E    10 E    18 A1   11 E    11 E    19 A1   12 E                  
  1.653   1.823   1.872   1.872   1.936   2.148   2.226   2.226
 12 E     1 A2   13 E    13 E    20 A1   21 A1   14 E    14 E                  
  2.464   2.464   2.477   2.716   2.716   2.767   2.898   2.898
 15 E    15 E    22 A1   16 E    16 E    23 A1   17 E    17 E                  
  2.985   3.108   3.108   3.427   3.442   4.273   4.273   4.634
 24 A1   18 E    18 E    25 A1   26 A1   19 E    19 E    20 E                  
  4.634   4.637   4.637   4.716   7.087   7.087   7.207  10.396
 20 E    21 E    21 E    27 A1   22 E    22 E    28 A1   29 A1                 
 25.174  26.498  26.498  26.927  69.067 219.219
 30 A1   23 E    23 E    31 A1   32 A1   33 A1                                 

 Beta MOs, Restricted
 -- Occupied --                  
-104.61  -25.86  -11.14  -10.33   -7.80   -7.80   -7.80   -1.13
  1 A1    2 A1    3 A1    4 A1    5 A1    1 E     1 E     6 A1                 
 -0.878  -0.747  -0.452  -0.452  -0.307  -0.250  -0.250  -0.234
  7 A1    8 A1    2 E     2 E     9 A1    3 E     3 E     4 E                  
 -0.234  -0.203
  4 E    10 A1                                                                 
 -- Virtual --                   
  0.319   0.351   0.383   0.383   0.577   0.611   0.611   0.626
 11 A1   12 A1    5 E     5 E    13 A1    6 E     6 E     7 E                  
  0.626   0.840   0.916   0.947   0.947   1.147   1.187   1.305
  7 E    14 A1   15 A1    8 E     8 E    16 A1   17 A1    9 E                  
  1.305   1.370   1.370   1.469   1.470   1.470   1.616   1.653
  9 E    10 E    10 E    18 A1   11 E    11 E    19 A1   12 E                  
  1.653   1.823   1.872   1.872   1.936   2.148   2.226   2.226
 12 E     1 A2   13 E    13 E    20 A1   21 A1   14 E    14 E                  
  2.464   2.464   2.477   2.716   2.716   2.767   2.898   2.898
 15 E    15 E    22 A1   16 E    16 E    23 A1   17 E    17 E                  
  2.985   3.108   3.108   3.427   3.442   4.273   4.273   4.634
 24 A1   18 E    18 E    25 A1   26 A1   19 E    19 E    20 E                  
  4.634   4.637   4.637   4.716   7.087   7.087   7.207  10.396
 20 E    21 E    21 E    27 A1   22 E    22 E    28 A1   29 A1                 
 25.174  26.498  26.498  26.927  69.067 219.219
 30 A1   23 E    23 E    31 A1   32 A1   33 A1                                 
 --------------------------------------------------------------

          Ground-State Mulliken Net Atomic Charges

     Atom                 Charge (a.u.)
  ----------------------------------------
      1 F                    -0.733201
      2 C                    -0.134603
      3 H                     0.140768
      4 H                     0.140768
      5 H                     0.140768
      6 Cl                   -0.554499
  ----------------------------------------
  Sum of atomic charges =    -1.000000

 -----------------------------------------------------------------
                    Cartesian Multipole Moments
 -----------------------------------------------------------------
    Charge (ESU x 10^10)
                -4.8032
    Dipole Moment (Debye)
         X       0.0000      Y      -0.0000      Z      -3.2461
       Tot       3.2461
    Quadrupole Moments (Debye-Ang)
        XX     -27.4280     XY      -0.0000     YY     -27.4280
        XZ       0.0000     YZ      -0.0000     ZZ     -59.4740
    Octopole Moments (Debye-Ang^2)
       XXX       0.8970    XXY      -0.0000    XYY      -0.8970
       YYY      -0.0000    XXZ       7.1565    XYZ       0.0000
       YYZ       7.1565    XZZ       0.0000    YZZ       0.0000
       ZZZ     -30.0680
    Hexadecapole Moments (Debye-Ang^3)
      XXXX     -37.8268   XXXY      -0.0000   XXYY     -12.6089
      XYYY      -0.0000   YYYY     -37.8268   XXXZ       0.5009
      XXYZ      -0.0000   XYYZ      -0.5009   YYYZ      -0.0000
      XXZZ     -93.0750   XYZZ      -0.0000   YYZZ     -93.0750
      XZZZ       0.0000   YZZZ      -0.0000   ZZZZ    -677.9348
 -----------------------------------------------------------------
 DrvMan is completing analytic gradient of the MP2 energy
 MP2 relaxed dipole moment
            1
    1   0.0000000
    2  -0.0000000
    3  -1.2771040
	Magnitude:	 1.277 au	 3.246 Debye
 MP2 energy read as -599.166405
 Full Analytical Gradient of MP2 Energy (in au.)
             1             2             3             4             5
    1    0.00000000    0.00000000   -0.00014528    0.00007264    0.00007264
    2    0.00000000   -0.00000000   -0.00000000    0.00012581   -0.00012581
    3    0.01097585   -0.00612648   -0.00067072   -0.00067072   -0.00067072
             6
    1   -0.00000000
    2    0.00000000
    3   -0.00283721
 Gradient time:  CPU 0.01 s  wall 0.01 s
 Geometry Optimization Parameters
   NAtoms,    NIC,     NZ,  NCons,   NDum,   NFix, NCnnct, MaxDiis
        6      63       0       1       0       0       0       0

 Cartesian Hessian Update
 Hessian Updated using BFGS Update


** CONSTRAINED OPTIMIZATION IN DELOCALIZED INTERNAL COORDINATES **
   Searching for a Minimum

   Optimization Cycle:   3

                       Coordinates (Angstroms)
     ATOM                X               Y               Z
      1  F         0.0000000000    0.0000000000    2.5651797546
      2  C         0.0000000000    0.0000000000    0.4751798971
      3  H         1.0627853853    0.0000000000    0.6157504489
      4  H        -0.5313926926   -0.9203991424    0.6157504489
      5  H        -0.5313926926    0.9203991424    0.6157504489
      6  Cl        0.0000000000    0.0000000000   -1.6408936459
   Point Group: c3v   Number of degrees of freedom:     4


   Energy is   -599.166405253

              Constraints and their Current Values
                                        Value     Constraint
   Distance(Angs):        1   2             2.090000     2.090000
 GETINT wrote B to file, NVib is            4
 Hessian Updated using BFGS Update

  3 Hessian modes will be used to form the next step
  Hessian Eigenvalues:
     0.052018    0.118574    0.417002

 Minimum Search - Taking Simple RFO Step
 Searching for Lamda that Minimizes Along All modes
 Value Taken    Lamda =  -0.00010903
 Step Taken.  Stepsize is  0.040123

                             Maximum     Tolerance    Cnvgd?
         Gradient           0.002493      0.000300      NO
         Displacement       0.029280      0.001200      NO
         Energy change     -0.000062      0.000001      NO


 New Cartesian Coordinates Obtained by Inverse Iteration

 Displacement from previous Coordinates is:  0.026509
 ----------------------------------------------------------------
             Standard Nuclear Orientation (Angstroms)
    I     Atom           X                Y                Z
 ----------------------------------------------------------------
    1      F       0.0000000000     0.0000000000     2.5600377635
    2      C       0.0000000000     0.0000000000     0.4700379060
    3      H       1.0646644104     0.0000000000     0.6153371695
    4      H      -0.5323322052    -0.9220264259     0.6153371695
    5      H      -0.5323322052     0.9220264259     0.6153371695
    6      Cl      0.0000000000     0.0000000000    -1.6293698256
 ----------------------------------------------------------------
 Molecular Point Group                 C3v   NOp =  6
 Largest Abelian Subgroup              Cs    NOp =  2
 Nuclear Repulsion Energy =    85.7414418599 hartrees
 There are       18 alpha and       18 beta electrons
 Applying Cartesian multipole field
    Component          Value
    ---------          -----
     (2,0,0)        1.00000E-10
     (0,2,0)        2.00000E-10
     (0,0,2)       -3.00000E-11
 Nucleus-field energy     =    -0.0000000096 hartrees
 Requested basis set is 6-311G(d,p)
 There are 34 shells and 80 basis functions
 A cutoff of  1.0D-11 yielded    558 shell pairs
 There are      3066 function pairs (      3293 Cartesian)
 Smallest overlap matrix eigenvalue = 1.09E-02
 Guess MOs from SCF MO coefficient file
Reading MOs from coefficient file
Reading MOs from coefficient file
 A restricted Hartree-Fock SCF calculation will be
 performed using Pulay DIIS extrapolation
 SCF converges when DIIS error is below 1.0E-08
Geometry optimization detected.  Setting ReadMinima to 0
Setting SaveMinima to 0
 ---------------------------------------
  Cycle       Energy         DIIS Error
 ---------------------------------------
    1    -598.5716818713      5.49E-04
    2    -598.5728499544      1.02E-04
    3    -598.5728606201      3.87E-05
    4    -598.5728625045      1.40E-05
    5    -598.5728629554      4.21E-06
    6    -598.5728630045      1.42E-06
    7    -598.5728630075      4.82E-07
    8    -598.5728630077      7.32E-08
    9    -598.5728630077      1.53E-08
   10    -598.5728630077      4.99E-09 Convergence criterion met
 ---------------------------------------
 SCF time:  CPU 1.59 s  wall 1.59 s
 SCF   energy in the final basis set = -598.5728630077
 Total energy in the final basis set = -598.5728630077

 Components of the MP2 correlation energy:
        aaaa  correlation energy =        -0.0709492320 au
        abab  correlation energy =        -0.4517266389 au
        bbbb  correlation energy =        -0.0709492320 au
        non-Brillouin singles    =        -0.0000000000 au

 Total  MP2   correlation energy =        -0.5936251030 au
        MP2         total energy =      -599.1664881107 au

  Entering Z-vector solver.
OV_DIM:  Setting MaxSz  = 1116
OV_DIM:  Setting MaxSpc = 1116
   1         0           1      0.000550    0.000550
   2         0           1      0.000171    0.000171
   3         0           1      0.000059    0.000059
   4         0           1      0.000016    0.000016
   5         0           1      0.000004    0.000004
   6         1           0      0.000000    0.000000    Roots Converged
 Analysis of SCF Wavefunction

 --------------------------------------------------------------
             Orbital Energies (a.u.) and Symmetries
 --------------------------------------------------------------

 Alpha MOs, Restricted
 -- Occupied --                  
-104.61  -25.86  -11.14  -10.33   -7.80   -7.80   -7.80   -1.13
  1 A1    2 A1    3 A1    4 A1    5 A1    1 E     1 E     6 A1                 
 -0.881  -0.745  -0.449  -0.449  -0.308  -0.250  -0.250  -0.232
  7 A1    8 A1    2 E     2 E     9 A1    3 E     3 E     4 E                  
 -0.232  -0.202
  4 E    10 A1                                                                 
 -- Virtual --                   
  0.319   0.353   0.383   0.383   0.577   0.611   0.611   0.625
 11 A1   12 A1    5 E     5 E    13 A1    6 E     6 E     7 E                  
  0.625   0.840   0.914   0.948   0.948   1.152   1.188   1.301
  7 E    14 A1   15 A1    8 E     8 E    16 A1   17 A1    9 E                  
  1.301   1.369   1.369   1.466   1.473   1.473   1.618   1.656
  9 E    10 E    10 E    18 A1   11 E    11 E    19 A1   12 E                  
  1.656   1.823   1.874   1.874   1.943   2.154   2.224   2.224
 12 E     1 A2   13 E    13 E    20 A1   21 A1   14 E    14 E                  
  2.467   2.467   2.477   2.716   2.716   2.770   2.898   2.898
 15 E    15 E    22 A1   16 E    16 E    23 A1   17 E    17 E                  
  2.982   3.104   3.104   3.429   3.452   4.270   4.270   4.637
 24 A1   18 E    18 E    25 A1   26 A1   19 E    19 E    20 E                  
  4.637   4.640   4.640   4.719   7.090   7.090   7.209  10.397
 20 E    21 E    21 E    27 A1   22 E    22 E    28 A1   29 A1                 
 25.170  26.498  26.498  26.939  69.070 219.220
 30 A1   23 E    23 E    31 A1   32 A1   33 A1                                 

 Beta MOs, Restricted
 -- Occupied --                  
-104.61  -25.86  -11.14  -10.33   -7.80   -7.80   -7.80   -1.13
  1 A1    2 A1    3 A1    4 A1    5 A1    1 E     1 E     6 A1                 
 -0.881  -0.745  -0.449  -0.449  -0.308  -0.250  -0.250  -0.232
  7 A1    8 A1    2 E     2 E     9 A1    3 E     3 E     4 E                  
 -0.232  -0.202
  4 E    10 A1                                                                 
 -- Virtual --                   
  0.319   0.353   0.383   0.383   0.577   0.611   0.611   0.625
 11 A1   12 A1    5 E     5 E    13 A1    6 E     6 E     7 E                  
  0.625   0.840   0.914   0.948   0.948   1.152   1.188   1.301
  7 E    14 A1   15 A1    8 E     8 E    16 A1   17 A1    9 E                  
  1.301   1.369   1.369   1.466   1.473   1.473   1.618   1.656
  9 E    10 E    10 E    18 A1   11 E    11 E    19 A1   12 E                  
  1.656   1.823   1.874   1.874   1.943   2.154   2.224   2.224
 12 E     1 A2   13 E    13 E    20 A1   21 A1   14 E    14 E                  
  2.467   2.467   2.477   2.716   2.716   2.770   2.898   2.898
 15 E    15 E    22 A1   16 E    16 E    23 A1   17 E    17 E                  
  2.982   3.104   3.104   3.429   3.452   4.270   4.270   4.637
 24 A1   18 E    18 E    25 A1   26 A1   19 E    19 E    20 E                  
  4.637   4.640   4.640   4.719   7.090   7.090   7.209  10.397
 20 E    21 E    21 E    27 A1   22 E    22 E    28 A1   29 A1                 
 25.170  26.498  26.498  26.939  69.070 219.220
 30 A1   23 E    23 E    31 A1   32 A1   33 A1                                 
 --------------------------------------------------------------

          Ground-State Mulliken Net Atomic Charges

     Atom                 Charge (a.u.)
  ----------------------------------------
      1 F                    -0.737396
      2 C                    -0.137753
      3 H                     0.140110
      4 H                     0.140110
      5 H                     0.140110
      6 Cl                   -0.545181
  ----------------------------------------
  Sum of atomic charges =    -1.000000

 -----------------------------------------------------------------
                    Cartesian Multipole Moments
 -----------------------------------------------------------------
    Charge (ESU x 10^10)
                -4.8032
    Dipole Moment (Debye)
         X       0.0000      Y       0.0000      Z      -3.3879
       Tot       3.3879
    Quadrupole Moments (Debye-Ang)
        XX     -27.4152     XY       0.0000     YY     -27.4152
        XZ       0.0000     YZ      -0.0000     ZZ     -59.3281
    Octopole Moments (Debye-Ang^2)
       XXX       0.8963    XXY       0.0000    XYY      -0.8963
       YYY      -0.0000    XXZ       6.9600    XYZ      -0.0000
       YYZ       6.9600    XZZ       0.0000    YZZ       0.0000
       ZZZ     -31.1421
    Hexadecapole Moments (Debye-Ang^3)
      XXXX     -37.8346   XXXY       0.0000   XXYY     -12.6115
      XYYY       0.0000   YYYY     -37.8346   XXXZ       0.4981
      XXYZ      -0.0000   XYYZ      -0.4981   YYYZ      -0.0000
      XXZZ     -92.2938   XYZZ       0.0000   YYZZ     -92.2938
      XZZZ       0.0000   YZZZ      -0.0000   ZZZZ    -672.3204
 -----------------------------------------------------------------
 DrvMan is completing analytic gradient of the MP2 energy
 MP2 relaxed dipole moment
            1
    1   0.0000000
    2   0.0000000
    3  -1.3329004
	Magnitude:	 1.333 au	 3.388 Debye
 MP2 energy read as -599.166488
 Full Analytical Gradient of MP2 Energy (in au.)
             1             2             3             4             5
    1    0.00000000    0.00000000    0.00174305   -0.00087152   -0.00087152
    2    0.00000000    0.00000000   -0.00000000   -0.00150953    0.00150953
    3    0.00945486   -0.00527673   -0.00084077   -0.00084077   -0.00084077
             6
    1   -0.00000000
    2   -0.00000000
    3   -0.00165582
 Gradient time:  CPU 0.01 s  wall 0.01 s
 Geometry Optimization Parameters
   NAtoms,    NIC,     NZ,  NCons,   NDum,   NFix, NCnnct, MaxDiis
        6      63       0       1       0       0       0       0

 Cartesian Hessian Update
 Hessian Updated using BFGS Update


** CONSTRAINED OPTIMIZATION IN DELOCALIZED INTERNAL COORDINATES **
   Searching for a Minimum

   Optimization Cycle:   4

                       Coordinates (Angstroms)
     ATOM                X               Y               Z
      1  F         0.0000000000    0.0000000000    2.5600377635
      2  C         0.0000000000    0.0000000000    0.4700379060
      3  H         1.0646644104    0.0000000000    0.6153371695
      4  H        -0.5323322052   -0.9220264259    0.6153371695
      5  H        -0.5323322052    0.9220264259    0.6153371695
      6  Cl        0.0000000000    0.0000000000   -1.6293698256
   Point Group: c3v   Number of degrees of freedom:     4


   Energy is   -599.166488111

              Constraints and their Current Values
                                        Value     Constraint
   Distance(Angs):        1   2             2.090000     2.090000
 GETINT wrote B to file, NVib is            4
 Hessian Updated using BFGS Update

  3 Hessian modes will be used to form the next step
  Hessian Eigenvalues:
     0.019620    0.117851    0.538495

 Minimum Search - Taking Simple RFO Step
 Searching for Lamda that Minimizes Along All modes
 Value Taken    Lamda =  -0.00014584
 Step Taken.  Stepsize is  0.081489

                             Maximum     Tolerance    Cnvgd?
         Gradient           0.001929      0.000300      NO
         Displacement       0.069460      0.001200      NO
         Energy change     -0.000083      0.000001      NO


 New Cartesian Coordinates Obtained by Inverse Iteration

 Displacement from previous Coordinates is:  0.045959
 ----------------------------------------------------------------
             Standard Nuclear Orientation (Angstroms)
    I     Atom           X                Y                Z
 ----------------------------------------------------------------
    1      F       0.0000000000     0.0000000000     2.5496503925
    2      C       0.0000000000     0.0000000000     0.4596505350
    3      H       1.0646113442     0.0000000000     0.6158068980
    4      H      -0.5323056721    -0.9219804692     0.6158068980
    5      H      -0.5323056721     0.9219804692     0.6158068980
    6      Cl      0.0000000000     0.0000000000    -1.6100042690
 ----------------------------------------------------------------
 Molecular Point Group                 C3v   NOp =  6
 Largest Abelian Subgroup              Cs    NOp =  2
 Nuclear Repulsion Energy =    86.3402848474 hartrees
 There are       18 alpha and       18 beta electrons
 Applying Cartesian multipole field
    Component          Value
    ---------          -----
     (2,0,0)        1.00000E-10
     (0,2,0)        2.00000E-10
     (0,0,2)       -3.00000E-11
 Nucleus-field energy     =    -0.0000000094 hartrees
 Requested basis set is 6-311G(d,p)
 There are 34 shells and 80 basis functions
 A cutoff of  1.0D-11 yielded    558 shell pairs
 There are      3066 function pairs (      3293 Cartesian)
 Smallest overlap matrix eigenvalue = 1.08E-02
 Guess MOs from SCF MO coefficient file
Reading MOs from coefficient file
Reading MOs from coefficient file
 A restricted Hartree-Fock SCF calculation will be
 performed using Pulay DIIS extrapolation
 SCF converges when DIIS error is below 1.0E-08
Geometry optimization detected.  Setting ReadMinima to 0
Setting SaveMinima to 0
 ---------------------------------------
  Cycle       Energy         DIIS Error
 ---------------------------------------
    1    -598.5735975434      9.41E-04
    2    -598.5721781418      1.69E-04
    3    -598.5722094084      6.45E-05
    4    -598.5722151582      2.73E-05
    5    -598.5722167337      8.22E-06
    6    -598.5722168951      3.00E-06
    7    -598.5722169064      7.91E-07
    8    -598.5722169073      1.02E-07
    9    -598.5722169073      2.36E-08
   10    -598.5722169073      8.94E-09 Convergence criterion met
 ---------------------------------------
 SCF time:  CPU 1.56 s  wall 1.56 s
 SCF   energy in the final basis set = -598.5722169073
 Total energy in the final basis set = -598.5722169073

 Components of the MP2 correlation energy:
        aaaa  correlation energy =        -0.0711113465 au
        abab  correlation energy =        -0.4521502035 au
        bbbb  correlation energy =        -0.0711113465 au
        non-Brillouin singles    =        -0.0000000000 au

 Total  MP2   correlation energy =        -0.5943728966 au
        MP2         total energy =      -599.1665898039 au

  Entering Z-vector solver.
OV_DIM:  Setting MaxSz  = 1116
OV_DIM:  Setting MaxSpc = 1116
   1         0           1      0.000535    0.000535
   2         0           1      0.000165    0.000165
   3         0           1      0.000056    0.000056
   4         0           1      0.000016    0.000016
   5         0           1      0.000004    0.000004
   6         1           0      0.000000    0.000000    Roots Converged
 Analysis of SCF Wavefunction

 --------------------------------------------------------------
             Orbital Energies (a.u.) and Symmetries
 --------------------------------------------------------------

 Alpha MOs, Restricted
 -- Occupied --                  
-104.61  -25.85  -11.14  -10.34   -7.80   -7.80   -7.80   -1.13
  1 A1    2 A1    3 A1    4 A1    5 A1    1 E     1 E     6 A1                 
 -0.886  -0.741  -0.446  -0.446  -0.312  -0.252  -0.252  -0.229
  7 A1    8 A1    2 E     2 E     9 A1    3 E     3 E     4 E                  
 -0.229  -0.199
  4 E    10 A1                                                                 
 -- Virtual --                   
  0.321   0.358   0.385   0.385   0.577   0.613   0.613   0.624
 11 A1   12 A1    5 E     5 E    13 A1    6 E     6 E     7 E                  
  0.624   0.843   0.911   0.950   0.950   1.160   1.189   1.295
  7 E    14 A1   15 A1    8 E     8 E    16 A1   17 A1    9 E                  
  1.295   1.366   1.366   1.462   1.479   1.479   1.621   1.662
  9 E    10 E    10 E    18 A1   11 E    11 E    19 A1   12 E                  
  1.662   1.827   1.879   1.879   1.957   2.166   2.221   2.221
 12 E     1 A2   13 E    13 E    20 A1   21 A1   14 E    14 E                  
  2.477   2.477   2.479   2.716   2.716   2.778   2.902   2.902
 15 E    15 E    22 A1   16 E    16 E    23 A1   17 E    17 E                  
  2.980   3.101   3.101   3.432   3.474   4.271   4.271   4.641
 24 A1   18 E    18 E    25 A1   26 A1   19 E    19 E    20 E                  
  4.641   4.644   4.644   4.724   7.095   7.095   7.214  10.399
 20 E    21 E    21 E    27 A1   22 E    22 E    28 A1   29 A1                 
 25.170  26.499  26.499  26.959  69.076 219.223
 30 A1   23 E    23 E    31 A1   32 A1   33 A1                                 

 Beta MOs, Restricted
 -- Occupied --                  
-104.61  -25.85  -11.14  -10.34   -7.80   -7.80   -7.80   -1.13
  1 A1    2 A1    3 A1    4 A1    5 A1    1 E     1 E     6 A1                 
 -0.886  -0.741  -0.446  -0.446  -0.312  -0.252  -0.252  -0.229
  7 A1    8 A1    2 E     2 E     9 A1    3 E     3 E     4 E                  
 -0.229  -0.199
  4 E    10 A1                                                                 
 -- Virtual --                   
  0.321   0.358   0.385   0.385   0.577   0.613   0.613   0.624
 11 A1   12 A1    5 E     5 E    13 A1    6 E     6 E     7 E                  
  0.624   0.843   0.911   0.950   0.950   1.160   1.189   1.295
  7 E    14 A1   15 A1    8 E     8 E    16 A1   17 A1    9 E                  
  1.295   1.366   1.366   1.462   1.479   1.479   1.621   1.662
  9 E    10 E    10 E    18 A1   11 E    11 E    19 A1   12 E                  
  1.662   1.827   1.879   1.879   1.957   2.166   2.221   2.221
 12 E     1 A2   13 E    13 E    20 A1   21 A1   14 E    14 E                  
  2.477   2.477   2.479   2.716   2.716   2.778   2.902   2.902
 15 E    15 E    22 A1   16 E    16 E    23 A1   17 E    17 E                  
  2.980   3.101   3.101   3.432   3.474   4.271   4.271   4.641
 24 A1   18 E    18 E    25 A1   26 A1   19 E    19 E    20 E                  
  4.641   4.644   4.644   4.724   7.095   7.095   7.214  10.399
 20 E    21 E    21 E    27 A1   22 E    22 E    28 A1   29 A1                 
 25.170  26.499  26.499  26.959  69.076 219.223
 30 A1   23 E    23 E    31 A1   32 A1   33 A1                                 
 --------------------------------------------------------------

          Ground-State Mulliken Net Atomic Charges

     Atom                 Charge (a.u.)
  ----------------------------------------
      1 F                    -0.745057
      2 C                    -0.143337
      3 H                     0.138786
      4 H                     0.138786
      5 H                     0.138786
      6 Cl                   -0.527963
  ----------------------------------------
  Sum of atomic charges =    -1.000000

 -----------------------------------------------------------------
                    Cartesian Multipole Moments
 -----------------------------------------------------------------
    Charge (ESU x 10^10)
                -4.8032
    Dipole Moment (Debye)
         X       0.0000      Y      -0.0000      Z      -3.6398
       Tot       3.6398
    Quadrupole Moments (Debye-Ang)
        XX     -27.3920     XY       0.0000     YY     -27.3920
        XZ       0.0000     YZ       0.0000     ZZ     -59.0408
    Octopole Moments (Debye-Ang^2)
       XXX       0.8839    XXY      -0.0000    XYY      -0.8839
       YYY      -0.0000    XXZ       6.6356    XYZ       0.0000
       YYZ       6.6356    XZZ       0.0000    YZZ      -0.0000
       ZZZ     -32.8872
    Hexadecapole Moments (Debye-Ang^3)
      XXXX     -37.7962   XXXY       0.0000   XXYY     -12.5987
      XYYY       0.0000   YYYY     -37.7962   XXXZ       0.4889
      XXYZ       0.0000   XYYZ      -0.4889   YYYZ      -0.0000
      XXZZ     -90.9074   XYZZ       0.0000   YYZZ     -90.9074
      XZZZ       0.0000   YZZZ       0.0000   ZZZZ    -662.2461
 -----------------------------------------------------------------
 DrvMan is completing analytic gradient of the MP2 energy
 MP2 relaxed dipole moment
            1
    1   0.0000000
    2  -0.0000000
    3  -1.4320223
	Magnitude:	 1.432 au	 3.640 Debye
 MP2 energy read as -599.166590
 Full Analytical Gradient of MP2 Energy (in au.)
             1             2             3             4             5
    1    0.00000000    0.00000000    0.00282805   -0.00141403   -0.00141403
    2    0.00000000   -0.00000000    0.00000000   -0.00244917    0.00244917
    3    0.00645352   -0.00325092   -0.00118797   -0.00118797   -0.00118797
             6
    1   -0.00000000
    2    0.00000000
    3    0.00036132
 Gradient time:  CPU 0.01 s  wall 0.01 s
 Geometry Optimization Parameters
   NAtoms,    NIC,     NZ,  NCons,   NDum,   NFix, NCnnct, MaxDiis
        6      63       0       1       0       0       0       0

 Cartesian Hessian Update
 Hessian Updated using BFGS Update


** CONSTRAINED OPTIMIZATION IN DELOCALIZED INTERNAL COORDINATES **
   Searching for a Minimum

   Optimization Cycle:   5

                       Coordinates (Angstroms)
     ATOM                X               Y               Z
      1  F         0.0000000000    0.0000000000    2.5496503925
      2  C         0.0000000000    0.0000000000    0.4596505350
      3  H         1.0646113442    0.0000000000    0.6158068980
      4  H        -0.5323056721   -0.9219804692    0.6158068980
      5  H        -0.5323056721    0.9219804692    0.6158068980
      6  Cl        0.0000000000    0.0000000000   -1.6100042690
   Point Group: c3v   Number of degrees of freedom:     4


   Energy is   -599.166589804

              Constraints and their Current Values
                                        Value     Constraint
   Distance(Angs):        1   2             2.090000     2.090000
 GETINT wrote B to file, NVib is            4
 Hessian Updated using BFGS Update

  3 Hessian modes will be used to form the next step
  Hessian Eigenvalues:
     0.009997    0.148583    0.526618

 Minimum Search - Taking Simple RFO Step
 Searching for Lamda that Minimizes Along All modes
 Value Taken    Lamda =  -0.00011627
 Step Taken.  Stepsize is  0.092043

                             Maximum     Tolerance    Cnvgd?
         Gradient           0.003734      0.000300      NO
         Displacement       0.086824      0.001200      NO
         Energy change     -0.000102      0.000001      NO


 New Cartesian Coordinates Obtained by Inverse Iteration

 Displacement from previous Coordinates is:  0.042254
 ----------------------------------------------------------------
             Standard Nuclear Orientation (Angstroms)
    I     Atom           X                Y                Z
 ----------------------------------------------------------------
    1      F       0.0000000000     0.0000000000     2.5384549720
    2      C       0.0000000000     0.0000000000     0.4484551145
    3      H       1.0620138053     0.0000000000     0.6184647029
    4      H      -0.5310069027    -0.9197309346     0.6184647029
    5      H      -0.5310069027     0.9197309346     0.6184647029
    6      Cl      0.0000000000     0.0000000000    -1.5955868427
 ----------------------------------------------------------------
 Molecular Point Group                 C3v   NOp =  6
 Largest Abelian Subgroup              Cs    NOp =  2
 Nuclear Repulsion Energy =    86.8853428038 hartrees
 There are       18 alpha and       18 beta electrons
 Applying Cartesian multipole field
    Component          Value
    ---------          -----
     (2,0,0)        1.00000E-10
     (0,2,0)        2.00000E-10
     (0,0,2)       -3.00000E-11
 Nucleus-field energy     =    -0.0000000093 hartrees
 Requested basis set is 6-311G(d,p)
 There are 34 shells and 80 basis functions
 A cutoff of  1.0D-11 yielded    559 shell pairs
 There are      3071 function pairs (      3299 Cartesian)
 Smallest overlap matrix eigenvalue = 1.07E-02
 Guess MOs from SCF MO coefficient file
Reading MOs from coefficient file
Reading MOs from coefficient file
 A restricted Hartree-Fock SCF calculation will be
 performed using Pulay DIIS extrapolation
 SCF converges when DIIS error is below 1.0E-08
Geometry optimization detected.  Setting ReadMinima to 0
Setting SaveMinima to 0
 ---------------------------------------
  Cycle       Energy         DIIS Error
 ---------------------------------------
    1    -598.5749498134      8.27E-04
    2    -598.5716709423      1.55E-04
    3    -598.5716976701      6.03E-05
    4    -598.5717026888      2.65E-05
    5    -598.5717040992      8.21E-06
    6    -598.5717042462      2.84E-06
    7    -598.5717042569      6.81E-07
    8    -598.5717042576      1.01E-07
    9    -598.5717042576      2.56E-08
   10    -598.5717042576      7.46E-09 Convergence criterion met
 ---------------------------------------
 SCF time:  CPU 1.51 s  wall 1.51 s
 SCF   energy in the final basis set = -598.5717042576
 Total energy in the final basis set = -598.5717042576

 Components of the MP2 correlation energy:
        aaaa  correlation energy =        -0.0712544267 au
        abab  correlation energy =        -0.4524616051 au
        bbbb  correlation energy =        -0.0712544267 au
        non-Brillouin singles    =        -0.0000000000 au

 Total  MP2   correlation energy =        -0.5949704586 au
        MP2         total energy =      -599.1666747162 au

  Entering Z-vector solver.
OV_DIM:  Setting MaxSz  = 1116
OV_DIM:  Setting MaxSpc = 1116
   1         0           1      0.000521    0.000521
   2         0           1      0.000159    0.000159
   3         0           1      0.000054    0.000054
   4         0           1      0.000016    0.000016
   5         0           1      0.000003    0.000003
   6         1           0      0.000000    0.000000    Roots Converged
 Analysis of SCF Wavefunction

 --------------------------------------------------------------
             Orbital Energies (a.u.) and Symmetries
 --------------------------------------------------------------

 Alpha MOs, Restricted
 -- Occupied --                  
-104.61  -25.85  -11.13  -10.34   -7.81   -7.81   -7.81   -1.12
  1 A1    2 A1    3 A1    4 A1    5 A1    1 E     1 E     6 A1                 
 -0.890  -0.738  -0.443  -0.443  -0.315  -0.253  -0.253  -0.225
  7 A1    8 A1    2 E     2 E     9 A1    3 E     3 E     4 E                  
 -0.225  -0.197
  4 E    10 A1                                                                 
 -- Virtual --                   
  0.324   0.362   0.386   0.386   0.578   0.614   0.614   0.623
 11 A1   12 A1    5 E     5 E    13 A1    6 E     6 E     7 E                  
  0.623   0.847   0.908   0.953   0.953   1.167   1.191   1.289
  7 E    14 A1   15 A1    8 E     8 E    16 A1   17 A1    9 E                  
  1.289   1.363   1.363   1.458   1.483   1.483   1.624   1.668
  9 E    10 E    10 E    18 A1   11 E    11 E    19 A1   12 E                  
  1.668   1.832   1.884   1.884   1.971   2.179   2.217   2.217
 12 E     1 A2   13 E    13 E    20 A1   21 A1   14 E    14 E                  
  2.481   2.489   2.489   2.717   2.717   2.786   2.907   2.907
 22 A1   15 E    15 E    16 E    16 E    23 A1   17 E    17 E                  
  2.980   3.101   3.101   3.435   3.496   4.276   4.276   4.645
 24 A1   18 E    18 E    25 A1   26 A1   19 E    19 E    20 E                  
  4.645   4.647   4.647   4.729   7.100   7.100   7.218  10.401
 20 E    21 E    21 E    27 A1   22 E    22 E    28 A1   29 A1                 
 25.176  26.499  26.499  26.975  69.081 219.226
 30 A1   23 E    23 E    31 A1   32 A1   33 A1                                 

 Beta MOs, Restricted
 -- Occupied --                  
-104.61  -25.85  -11.13  -10.34   -7.81   -7.81   -7.81   -1.12
  1 A1    2 A1    3 A1    4 A1    5 A1    1 E     1 E     6 A1                 
 -0.890  -0.738  -0.443  -0.443  -0.315  -0.253  -0.253  -0.225
  7 A1    8 A1    2 E     2 E     9 A1    3 E     3 E     4 E                  
 -0.225  -0.197
  4 E    10 A1                                                                 
 -- Virtual --                   
  0.324   0.362   0.386   0.386   0.578   0.614   0.614   0.623
 11 A1   12 A1    5 E     5 E    13 A1    6 E     6 E     7 E                  
  0.623   0.847   0.908   0.953   0.953   1.167   1.191   1.289
  7 E    14 A1   15 A1    8 E     8 E    16 A1   17 A1    9 E                  
  1.289   1.363   1.363   1.458   1.483   1.483   1.624   1.668
  9 E    10 E    10 E    18 A1   11 E    11 E    19 A1   12 E                  
  1.668   1.832   1.884   1.884   1.971   2.179   2.217   2.217
 12 E     1 A2   13 E    13 E    20 A1   21 A1   14 E    14 E                  
  2.481   2.489   2.489   2.717   2.717   2.786   2.907   2.907
 22 A1   15 E    15 E    16 E    16 E    23 A1   17 E    17 E                  
  2.980   3.101   3.101   3.435   3.496   4.276   4.276   4.645
 24 A1   18 E    18 E    25 A1   26 A1   19 E    19 E    20 E                  
  4.645   4.647   4.647   4.729   7.100   7.100   7.218  10.401
 20 E    21 E    21 E    27 A1   22 E    22 E    28 A1   29 A1                 
 25.176  26.499  26.499  26.975  69.081 219.226
 30 A1   23 E    23 E    31 A1   32 A1   33 A1                                 
 --------------------------------------------------------------

          Ground-State Mulliken Net Atomic Charges

     Atom                 Charge (a.u.)
  ----------------------------------------
      1 F                    -0.751892
      2 C                    -0.149049
      3 H                     0.137632
      4 H                     0.137632
      5 H                     0.137632
      6 Cl                   -0.511956
  ----------------------------------------
  Sum of atomic charges =    -1.000000

 -----------------------------------------------------------------
                    Cartesian Multipole Moments
 -----------------------------------------------------------------
    Charge (ESU x 10^10)
                -4.8032
    Dipole Moment (Debye)
         X       0.0000      Y       0.0000      Z      -3.8534
       Tot       3.8534
    Quadrupole Moments (Debye-Ang)
        XX     -27.3746     XY      -0.0000     YY     -27.3746
        XZ       0.0000     YZ      -0.0000     ZZ     -58.7492
    Octopole Moments (Debye-Ang^2)
       XXX       0.8639    XXY       0.0000    XYY      -0.8639
       YYY       0.0000    XXZ       6.4048    XYZ       0.0000
       YYZ       6.4048    XZZ       0.0000    YZZ       0.0000
       ZZZ     -34.0977
    Hexadecapole Moments (Debye-Ang^3)
      XXXX     -37.7364   XXXY      -0.0000   XXYY     -12.5788
      XYYY      -0.0000   YYYY     -37.7364   XXXZ       0.4798
      XXYZ      -0.0000   XYYZ      -0.4798   YYYZ      -0.0000
      XXZZ     -89.7351   XYZZ      -0.0000   YYZZ     -89.7351
      XZZZ       0.0000   YZZZ      -0.0000   ZZZZ    -653.3847
 -----------------------------------------------------------------
 DrvMan is completing analytic gradient of the MP2 energy
 MP2 relaxed dipole moment
            1
    1   0.0000000
    2   0.0000000
    3  -1.5160608
	Magnitude:	 1.516 au	 3.853 Debye
 MP2 energy read as -599.166675
 Full Analytical Gradient of MP2 Energy (in au.)
             1             2             3             4             5
    1    0.00000000    0.00000000    0.00238432   -0.00119216   -0.00119216
    2    0.00000000   -0.00000000    0.00000000   -0.00206488    0.00206488
    3    0.00337603   -0.00134388   -0.00126048   -0.00126048   -0.00126048
             6
    1   -0.00000000
    2   -0.00000000
    3    0.00174928
 Gradient time:  CPU 0.01 s  wall 0.01 s
 Geometry Optimization Parameters
   NAtoms,    NIC,     NZ,  NCons,   NDum,   NFix, NCnnct, MaxDiis
        6      63       0       1       0       0       0       0

 Cartesian Hessian Update
 Hessian Updated using BFGS Update


** CONSTRAINED OPTIMIZATION IN DELOCALIZED INTERNAL COORDINATES **
   Searching for a Minimum

   Optimization Cycle:   6

                       Coordinates (Angstroms)
     ATOM                X               Y               Z
      1  F         0.0000000000    0.0000000000    2.5384549720
      2  C         0.0000000000    0.0000000000    0.4484551145
      3  H         1.0620138053    0.0000000000    0.6184647029
      4  H        -0.5310069027   -0.9197309346    0.6184647029
      5  H        -0.5310069027    0.9197309346    0.6184647029
      6  Cl        0.0000000000    0.0000000000   -1.5955868427
   Point Group: c3v   Number of degrees of freedom:     4


   Energy is   -599.166674716

              Constraints and their Current Values
                                        Value     Constraint
   Distance(Angs):        1   2             2.090000     2.090000
 GETINT wrote B to file, NVib is            4
 Hessian Updated using BFGS Update

  3 Hessian modes will be used to form the next step
  Hessian Eigenvalues:
     0.006557    0.166427    0.409227

 Minimum Search - Taking Simple RFO Step
 Searching for Lamda that Minimizes Along All modes
 Value Taken    Lamda =  -0.00012306
 Step Taken.  Stepsize is  0.103539

                             Maximum     Tolerance    Cnvgd?
         Gradient           0.003303      0.000300      NO
         Displacement       0.102476      0.001200      NO
         Energy change     -0.000085      0.000001      NO


 New Cartesian Coordinates Obtained by Inverse Iteration

 Displacement from previous Coordinates is:  0.040624
 ----------------------------------------------------------------
             Standard Nuclear Orientation (Angstroms)
    I     Atom           X                Y                Z
 ----------------------------------------------------------------
    1      F       0.0000000000     0.0000000000     2.5269852598
    2      C       0.0000000000     0.0000000000     0.4369854023
    3      H       1.0573100494     0.0000000000     0.6238983137
    4      H      -0.5286550247    -0.9156573625     0.6238983137
    5      H      -0.5286550247     0.9156573625     0.6238983137
    6      Cl      0.0000000000     0.0000000000    -1.5889482506
 ----------------------------------------------------------------
 Molecular Point Group                 C3v   NOp =  6
 Largest Abelian Subgroup              Cs    NOp =  2
 Nuclear Repulsion Energy =    87.2914922472 hartrees
 There are       18 alpha and       18 beta electrons
 Applying Cartesian multipole field
    Component          Value
    ---------          -----
     (2,0,0)        1.00000E-10
     (0,2,0)        2.00000E-10
     (0,0,2)       -3.00000E-11
 Nucleus-field energy     =    -0.0000000092 hartrees
 Requested basis set is 6-311G(d,p)
 There are 34 shells and 80 basis functions
 A cutoff of  1.0D-11 yielded    561 shell pairs
 There are      3073 function pairs (      3301 Cartesian)
 Smallest overlap matrix eigenvalue = 1.04E-02
 Guess MOs from SCF MO coefficient file
Reading MOs from coefficient file
Reading MOs from coefficient file
 A restricted Hartree-Fock SCF calculation will be
 performed using Pulay DIIS extrapolation
 SCF converges when DIIS error is below 1.0E-08
Geometry optimization detected.  Setting ReadMinima to 0
Setting SaveMinima to 0
 ---------------------------------------
  Cycle       Energy         DIIS Error
 ---------------------------------------
    1    -598.5753670060      6.26E-04
    2    -598.5713432176      1.33E-04
    3    -598.5713627260      5.34E-05
    4    -598.5713664324      2.25E-05
    5    -598.5713674309      7.38E-06
    6    -598.5713675404      2.48E-06
    7    -598.5713675493      5.26E-07
    8    -598.5713675497      1.01E-07
    9    -598.5713675497      2.25E-08
   10    -598.5713675497      4.72E-09 Convergence criterion met
 ---------------------------------------
 SCF time:  CPU 1.52 s  wall 1.52 s
 SCF   energy in the final basis set = -598.5713675497
 Total energy in the final basis set = -598.5713675497

 Components of the MP2 correlation energy:
        aaaa  correlation energy =        -0.0713664608 au
        abab  correlation energy =        -0.4526565760 au
        bbbb  correlation energy =        -0.0713664608 au
        non-Brillouin singles    =        -0.0000000000 au

 Total  MP2   correlation energy =        -0.5953894977 au
        MP2         total energy =      -599.1667570474 au

  Entering Z-vector solver.
OV_DIM:  Setting MaxSz  = 1116
OV_DIM:  Setting MaxSpc = 1116
   1         0           1      0.000509    0.000509
   2         0           1      0.000153    0.000153
   3         0           1      0.000052    0.000052
   4         0           1      0.000015    0.000015
   5         0           1      0.000003    0.000003
   6         1           0      0.000000    0.000000    Roots Converged
 Analysis of SCF Wavefunction

 --------------------------------------------------------------
             Orbital Energies (a.u.) and Symmetries
 --------------------------------------------------------------

 Alpha MOs, Restricted
 -- Occupied --                  
-104.62  -25.84  -11.13  -10.34   -7.81   -7.81   -7.81   -1.12
  1 A1    2 A1    3 A1    4 A1    5 A1    1 E     1 E     6 A1                 
 -0.894  -0.737  -0.441  -0.441  -0.318  -0.254  -0.254  -0.222
  7 A1    8 A1    2 E     2 E     9 A1    3 E     3 E     4 E                  
 -0.222  -0.196
  4 E    10 A1                                                                 
 -- Virtual --                   
  0.326   0.364   0.388   0.388   0.579   0.615   0.615   0.622
 11 A1   12 A1    5 E     5 E    13 A1    6 E     6 E     7 E                  
  0.622   0.852   0.907   0.956   0.956   1.172   1.191   1.286
  7 E    14 A1   15 A1    8 E     8 E    16 A1   17 A1    9 E                  
  1.286   1.361   1.361   1.455   1.485   1.485   1.626   1.672
  9 E    10 E    10 E    18 A1   11 E    11 E    19 A1   12 E                  
  1.672   1.839   1.889   1.889   1.983   2.191   2.211   2.211
 12 E     1 A2   13 E    13 E    20 A1   21 A1   14 E    14 E                  
  2.481   2.503   2.503   2.718   2.718   2.794   2.913   2.913
 22 A1   15 E    15 E    16 E    16 E    23 A1   17 E    17 E                  
  2.979   3.101   3.101   3.439   3.514   4.283   4.283   4.648
 24 A1   18 E    18 E    25 A1   26 A1   19 E    19 E    20 E                  
  4.648   4.650   4.650   4.733   7.104   7.104   7.221  10.403
 20 E    21 E    21 E    27 A1   22 E    22 E    28 A1   29 A1                 
 25.185  26.498  26.498  26.983  69.085 219.227
 30 A1   23 E    23 E    31 A1   32 A1   33 A1                                 

 Beta MOs, Restricted
 -- Occupied --                  
-104.62  -25.84  -11.13  -10.34   -7.81   -7.81   -7.81   -1.12
  1 A1    2 A1    3 A1    4 A1    5 A1    1 E     1 E     6 A1                 
 -0.894  -0.737  -0.441  -0.441  -0.318  -0.254  -0.254  -0.222
  7 A1    8 A1    2 E     2 E     9 A1    3 E     3 E     4 E                  
 -0.222  -0.196
  4 E    10 A1                                                                 
 -- Virtual --                   
  0.326   0.364   0.388   0.388   0.579   0.615   0.615   0.622
 11 A1   12 A1    5 E     5 E    13 A1    6 E     6 E     7 E                  
  0.622   0.852   0.907   0.956   0.956   1.172   1.191   1.286
  7 E    14 A1   15 A1    8 E     8 E    16 A1   17 A1    9 E                  
  1.286   1.361   1.361   1.455   1.485   1.485   1.626   1.672
  9 E    10 E    10 E    18 A1   11 E    11 E    19 A1   12 E                  
  1.672   1.839   1.889   1.889   1.983   2.191   2.211   2.211
 12 E     1 A2   13 E    13 E    20 A1   21 A1   14 E    14 E                  
  2.481   2.503   2.503   2.718   2.718   2.794   2.913   2.913
 22 A1   15 E    15 E    16 E    16 E    23 A1   17 E    17 E                  
  2.979   3.101   3.101   3.439   3.514   4.283   4.283   4.648
 24 A1   18 E    18 E    25 A1   26 A1   19 E    19 E    20 E                  
  4.648   4.650   4.650   4.733   7.104   7.104   7.221  10.403
 20 E    21 E    21 E    27 A1   22 E    22 E    28 A1   29 A1                 
 25.185  26.498  26.498  26.983  69.085 219.227
 30 A1   23 E    23 E    31 A1   32 A1   33 A1                                 
 --------------------------------------------------------------

          Ground-State Mulliken Net Atomic Charges

     Atom                 Charge (a.u.)
  ----------------------------------------
      1 F                    -0.757071
      2 C                    -0.154898
      3 H                     0.136929
      4 H                     0.136929
      5 H                     0.136929
      6 Cl                   -0.498818
  ----------------------------------------
  Sum of atomic charges =    -1.000000

 -----------------------------------------------------------------
                    Cartesian Multipole Moments
 -----------------------------------------------------------------
    Charge (ESU x 10^10)
                -4.8032
    Dipole Moment (Debye)
         X       0.0000      Y       0.0000      Z      -4.0009
       Tot       4.0009
    Quadrupole Moments (Debye-Ang)
        XX     -27.3686     XY      -0.0000     YY     -27.3686
        XZ       0.0000     YZ      -0.0000     ZZ     -58.4687
    Octopole Moments (Debye-Ang^2)
       XXX       0.8389    XXY       0.0000    XYY      -0.8389
       YYY       0.0000    XXZ       6.3164    XYZ       0.0000
       YYZ       6.3164    XZZ       0.0000    YZZ       0.0000
       ZZZ     -34.5355
    Hexadecapole Moments (Debye-Ang^3)
      XXXX     -37.6757   XXXY      -0.0000   XXYY     -12.5586
      XYYY      -0.0000   YYYY     -37.6757   XXXZ       0.4739
      XXYZ      -0.0000   XYYZ      -0.4739   YYYZ      -0.0000
      XXZZ     -88.9293   XYZZ      -0.0000   YYZZ     -88.9293
      XZZZ       0.0000   YZZZ      -0.0000   ZZZZ    -646.6719
 -----------------------------------------------------------------
 DrvMan is completing analytic gradient of the MP2 energy
 MP2 relaxed dipole moment
            1
    1   0.0000000
    2   0.0000000
    3  -1.5740927
	Magnitude:	 1.574 au	 4.001 Debye
 MP2 energy read as -599.166757
 Full Analytical Gradient of MP2 Energy (in au.)
             1             2             3             4             5
    1    0.00000000    0.00000000    0.00077456   -0.00038728   -0.00038728
    2    0.00000000   -0.00000000   -0.00000000   -0.00067078    0.00067078
    3    0.00044388    0.00027595   -0.00085412   -0.00085412   -0.00085412
             6
    1   -0.00000000
    2    0.00000000
    3    0.00184254
 Gradient time:  CPU 0.01 s  wall 0.01 s
 Geometry Optimization Parameters
[...]
 old dipole drv.
            1           2           3           4           5           6
    1  -0.7170667   0.0000000  -0.0000000   0.1442197   0.0000000  -0.0000001
    2  -0.0000000  -0.7170735  -0.0000020   0.0000000   0.1442334  -0.0000116
    3  -0.0000260   0.0000000  -1.8862505   0.0000373   0.0000000   3.1808238
            7           8           9          10          11          12
    1  -0.0182998   0.0000000  -0.0334594   0.0506898  -0.0398312   0.0167332
    2   0.0000000   0.0736864   0.0000040  -0.0398312   0.0046967   0.0289746
    3   0.0323521   0.0000000  -0.1489506  -0.0161760  -0.0280177  -0.1489506
           13          14          15          16          17          18
    1   0.0506898   0.0398312   0.0167262  -0.5102497   0.0000000  -0.0000000
    2   0.0398312   0.0046967  -0.0289787   0.0000000  -0.5102589  -0.0000051
    3  -0.0161760   0.0280177  -0.1489506   0.0000154   0.0000000  -1.8475505
 New transposed dipole drv.
            1           2           3
    1  -0.7170667  -0.0000000  -0.0000260
    2   0.0000000  -0.7170735   0.0000000
    3  -0.0000000  -0.0000020  -1.8862505
    4   0.1442197   0.0000000   0.0000373
    5   0.0000000   0.1442334   0.0000000
    6  -0.0000001  -0.0000116   3.1808238
    7  -0.0182998   0.0000000   0.0323521
    8   0.0000000   0.0736864   0.0000000
    9  -0.0334594   0.0000040  -0.1489506
   10   0.0506898  -0.0398312  -0.0161760
   11  -0.0398312   0.0046967  -0.0280177
   12   0.0167332   0.0289746  -0.1489506
   13   0.0506898   0.0398312  -0.0161760
   14   0.0398312   0.0046967   0.0280177
   15   0.0167262  -0.0289787  -0.1489506
   16  -0.5102497   0.0000000   0.0000154
   17   0.0000000  -0.5102589   0.0000000
   18  -0.0000000  -0.0000051  -1.8475505
FINAL TENSOR RESULT:
Order 2, Length 18
    Atom      X          Y          Z
     1 Order 1, Length 18
    Atom      X          Y          Z
     1    5.235844843944081e-03   0.000000000000000e+00   0.000000000000000e+00
     2   -1.304603970243264e-02   0.000000000000000e+00   0.000000000000000e+00
     3    3.519601670241285e-03   0.000000000000000e+00   2.434808030694226e-03
     4    1.809143457781737e-04   1.927204935276918e-03  -1.217450325888462e-03
     5    1.809143550067996e-04  -1.927204934047258e-03  -1.217347232930633e-03
     6    3.929792794634224e-03   0.000000000000000e+00   0.000000000000000e+00

Order 1, Length 18
    Atom      X          Y          Z
     1    0.000000000000000e+00   5.235944057133093e-03   1.690949458724546e-07
     2    0.000000000000000e+00  -1.304469024586677e-02  -4.759764766355838e-08
     3    0.000000000000000e+00  -9.317459912592556e-04  -5.951862697836229e-08
     4    1.927121968900519e-03   2.406127580722966e-03  -2.108752062306303e-03
     5   -1.927121968762067e-03   2.406127580483162e-03   2.108811580933281e-03
     6    0.000000000000000e+00   3.929059254434332e-03  -1.745006780587345e-07

Order 1, Length 18
    Atom      X          Y          Z
     1    0.000000000000000e+00   1.690949458724546e-07   3.754337570013330e-02
     2   -4.113522228216982e-07   0.000000000000000e+00   5.084711793525118e-02
     3    1.990173790009233e-03   0.000000000000000e+00  -1.773396993646496e-02
     4   -9.951985610286613e-04  -1.723701836649566e-03  -1.773397166787075e-02
     5   -9.950668020493186e-04   1.723347180669383e-03  -1.773393017822843e-02
     6    2.796088818260509e-07   0.000000000000000e+00  -3.518532385965760e-02


     2 Order 1, Length 18
    Atom      X          Y          Z
     1   -1.304603970243264e-02   0.000000000000000e+00  -4.113522228216982e-07
     2    6.890109756890062e-01   0.000000000000000e+00  -5.968898746379459e-10
     3   -3.802911631180438e-01   0.000000000000000e+00  -5.984110563654888e-02
     4   -1.332390388063565e-01  -1.426357806811233e-01   2.992038394647970e-02
     5   -1.332390387930013e-01   1.426357806847535e-01   2.992086431847342e-02
     6   -2.923073781318333e-02   0.000000000000000e+00   8.643467894826946e-07

Order 1, Length 18
    Atom      X          Y          Z
     1    0.000000000000000e+00  -1.304469024586677e-02   0.000000000000000e+00
     2    0.000000000000000e+00   6.890114590715605e-01   1.531357707125602e-06
     3    0.000000000000000e+00  -5.088842358735211e-02  -2.773413650343338e-07
     4   -1.426358363386884e-01  -2.979403784461919e-01   5.182398078786089e-02
     5    1.426358363407683e-01  -2.979403784497946e-01  -5.182370344649587e-02
     6    0.000000000000000e+00  -2.923189693146380e-02  -2.399093209145348e-07

Order 1, Length 18
    Atom      X          Y          Z
     1    0.000000000000000e+00  -4.759764766355838e-08   5.084711793525118e-02
     2   -5.968898746379459e-10   1.531357707125602e-06  -4.395143099131430e-02
     3   -6.375264798548244e-02   0.000000000000000e+00  -1.298101449595704e-02
     4    3.187607794899430e-02   5.521105180682775e-02  -1.298058408736749e-02
     5    3.187617785411376e-02  -5.521195239898728e-02  -1.298128565282839e-02
     6   -1.512167612856278e-06   0.000000000000000e+00   3.204356142585055e-02


     3 Order 1, Length 18
    Atom      X          Y          Z
     1    3.519601670241285e-03   0.000000000000000e+00   1.990173790009233e-03
     2   -3.802911631180438e-01   0.000000000000000e+00  -6.375264798548244e-02
     3    3.863094855478639e-01   0.000000000000000e+00   6.190709585189111e-02
     4   -7.679788967598520e-03   3.857435739369547e-03  -2.672368261828328e-03
     5   -7.679788972792940e-03  -3.857435742368546e-03  -2.672700050039934e-03
     6    5.826212922366366e-03   0.000000000000000e+00   5.195276193035158e-03

Order 1, Length 18
    Atom      X          Y          Z
     1    0.000000000000000e+00  -9.317459912592556e-04   0.000000000000000e+00
     2    0.000000000000000e+00  -5.088842358735211e-02   0.000000000000000e+00
     3    0.000000000000000e+00   4.429871727585952e-02   5.128806905352126e-07
     4   -2.351189327538519e-02   3.667717374670289e-03  -4.272191373438781e-03
     5    2.351189327238619e-02   3.667717379864709e-03   4.273075603242029e-03
     6    0.000000000000000e+00   2.039925658189077e-04  -1.089943516722011e-07

Order 1, Length 18
    Atom      X          Y          Z
     1    2.434808030694226e-03  -5.951862697836229e-08  -1.773396993646496e-02
     2   -5.984110563654888e-02  -2.773413650343338e-07  -1.298101449595704e-02
     3    6.190709585189111e-02   5.128806905352126e-07   4.917331325314346e-02
     4    5.036942049719079e-03   1.780883384095084e-04   3.068220463614405e-03
     5    5.036010390140880e-03  -1.782431162912048e-04   3.068220463614405e-03
     6   -1.457061597406106e-02   0.000000000000000e+00  -2.459533734733815e-02


     4 Order 1, Length 18
    Atom      X          Y          Z
     1    1.809143457781737e-04   1.927121968900519e-03  -9.951985610286613e-04
     2   -1.332390388063565e-01  -1.426358363386884e-01   3.187607794899430e-02
     3   -7.679788967598520e-03  -2.351189327538519e-02   5.036942049719079e-03
     4    1.298014093456600e-01   1.480950068467332e-01  -3.095310375823847e-02
     5    9.341470550999112e-03   1.368466451037636e-02  -2.363642128312552e-03
     6    1.609317344284563e-03   2.434439029580810e-03  -2.597844517418454e-03

Order 1, Length 18
    Atom      X          Y          Z
     1    1.927204935276918e-03   2.406127580722966e-03  -1.723701836649566e-03
     2   -1.426357806811233e-01  -2.979403784461919e-01   5.521105180682775e-02
     3    3.857435739369547e-03   3.667717374670289e-03   1.780883384095084e-04
     4    1.480950068467332e-01   3.008067934780633e-01  -5.361337412260120e-02
     5   -1.368466450437837e-02  -1.335354214392734e-02   4.450434489729987e-03
     6    2.434479582711135e-03   4.420566225183574e-03  -4.499576683658720e-03

Order 1, Length 18
    Atom      X          Y          Z
     1   -1.217450325888462e-03  -2.108752062306303e-03  -1.773397166787075e-02
     2    2.992038394647970e-02   5.182398078786089e-02  -1.298058408736749e-02
     3   -2.672368261828328e-03  -4.272191373438781e-03   3.068220463614405e-03
     4   -3.095310375823847e-02  -5.361337412260120e-02   4.917331325314346e-02
     5   -2.364241999679145e-03  -4.451163941651537e-03   3.068220463614405e-03
     6    7.285612880233790e-03   1.261915853201682e-02  -2.459579512672995e-02


     5 Order 1, Length 18
    Atom      X          Y          Z
     1    1.809143550067996e-04  -1.927121968762067e-03  -9.950668020493186e-04
     2   -1.332390387930013e-01   1.426358363407683e-01   3.187617785411376e-02
     3   -7.679788972792940e-03   2.351189327238619e-02   5.036010390140880e-03
     4    9.341470550999112e-03  -1.368466450437837e-02  -2.364241999679145e-03
     5    1.298014093420613e-01  -1.480950068446555e-01  -3.095399209365265e-02
     6    1.609317343170213e-03  -2.434439029477948e-03  -2.597555434837979e-03

Order 1, Length 18
    Atom      X          Y          Z
     1   -1.927204934047258e-03   2.406127580483162e-03   1.723347180669383e-03
     2    1.426357806847535e-01  -2.979403784497946e-01  -5.521195239898728e-02
     3   -3.857435742368546e-03   3.667717379864709e-03  -1.782431162912048e-04
     4    1.368466451037636e-02  -1.335354214392734e-02  -4.451163941651537e-03
     5   -1.480950068446555e-01   3.008067934816622e-01   5.361286124191069e-02
     6   -2.434479578613435e-03   4.420566225005414e-03   4.498857989071669e-03

Order 1, Length 18
    Atom      X          Y          Z
     1   -1.217347232930633e-03   2.108811580933281e-03  -1.773393017822843e-02
     2    2.992086431847342e-02  -5.182370344649587e-02  -1.298128565282839e-02
     3   -2.672700050039934e-03   4.273075603242029e-03   3.068220463614405e-03
     4   -2.363642128312552e-03   4.450434489729987e-03   3.068220463614405e-03
     5   -3.095399209365265e-02   5.361286124191069e-02   4.917331325314346e-02
     6    7.285649668537609e-03  -1.261913729331425e-02  -2.459483070961416e-02


     6 Order 1, Length 18
    Atom      X          Y          Z
     1    3.929792794634224e-03   0.000000000000000e+00   2.796088818260509e-07
     2   -2.923073781318333e-02   0.000000000000000e+00  -1.512167612856278e-06
     3    5.826212922366366e-03   0.000000000000000e+00  -1.457061597406106e-02
     4    1.609317344284563e-03   2.434479582711135e-03   7.285612880233790e-03
     5    1.609317343170213e-03  -2.434479578613435e-03   7.285649668537609e-03
     6    1.625698564102540e-02   0.000000000000000e+00   0.000000000000000e+00

Order 1, Length 18
    Atom      X          Y          Z
     1    0.000000000000000e+00   3.929059254434332e-03   0.000000000000000e+00
     2    0.000000000000000e+00  -2.923189693146380e-02   0.000000000000000e+00
     3    0.000000000000000e+00   2.039925658189077e-04   0.000000000000000e+00
     4    2.434439029580810e-03   4.420566225183574e-03   1.261915853201682e-02
     5   -2.434439029477948e-03   4.420566225005414e-03  -1.261913729331425e-02
     6    0.000000000000000e+00   1.625865629943009e-02   1.242106400478659e-06

Order 1, Length 18
    Atom      X          Y          Z
     1    0.000000000000000e+00  -1.745006780587345e-07  -3.518532385965760e-02
     2    8.643467894826946e-07  -2.399093209145348e-07   3.204356142585055e-02
     3    5.195276193035158e-03  -1.089943516722011e-07  -2.459533734733815e-02
     4   -2.597844517418454e-03  -4.499576683658720e-03  -2.459579512672995e-02
     5   -2.597555434837979e-03   4.498857989071669e-03  -2.459483070961416e-02
     6    0.000000000000000e+00   1.242106400478659e-06   7.692952081937991e-02




 # Finishing finite difference calculation for IDERIV #
 ######################################################
 ######################################################
 Requested basis set is 6-311G(d,p)
 There are 34 shells and 80 basis functions
 **********************************************************************
 **                                                                  **
 **                       VIBRATIONAL ANALYSIS                       **
 **                       --------------------                       **
 **                                                                  **
 **        VIBRATIONAL FREQUENCIES (CM**-1) AND NORMAL MODES         **
 **     FORCE CONSTANTS (mDYN/ANGSTROM) AND REDUCED MASSES (AMU)     **
 **                  INFRARED INTENSITIES (KM/MOL)                   **
 **                                                                  **
 **********************************************************************


 Mode:                 1                      2                      3
 Frequency:      -459.92                 212.58                 212.58
 Force Cnst:      1.4806                 0.1048                 0.1048
 Red. Mass:      11.8803                 3.9373                 3.9373
 IR Active:          YES                    YES                    YES
 IR Intens:        0.000                  0.000                  0.000
 Raman Active:       YES                    YES                    YES
               X      Y      Z        X      Y      Z        X      Y      Z
 F         -0.000  0.000 -0.296   -0.181  0.001  0.000   -0.001 -0.181 -0.000
 C         -0.000 -0.000  0.888    0.432 -0.002  0.000    0.002  0.432  0.000
 H          0.160 -0.000 -0.097    0.488 -0.003 -0.226    0.003  0.475 -0.001
 H         -0.080 -0.139 -0.097    0.478  0.003  0.112    0.008  0.485  0.196
 H         -0.080  0.139 -0.097    0.478 -0.008  0.114   -0.003  0.484 -0.195
 Cl         0.000  0.000 -0.136   -0.092  0.000 -0.000   -0.000 -0.092  0.000
 TransDip   0.000  0.000  0.000    0.000  0.000  0.000    0.000  0.000  0.000

 Mode:                 4                      5                      6
 Frequency:       309.72                 945.40                 945.40
 Force Cnst:      1.2912                 0.5643                 0.5643
 Red. Mass:      22.8451                 1.0717                 1.0717
 IR Active:          YES                    YES                    YES
 IR Intens:        0.000                  0.000                  0.000
 Raman Active:       YES                    YES                    YES
               X      Y      Z        X      Y      Z        X      Y      Z
 F          0.000 -0.000  0.823    0.003  0.000 -0.000   -0.000  0.003 -0.000
 C         -0.000  0.000  0.201    0.070  0.000 -0.000   -0.000  0.070 -0.000
 H          0.028  0.000  0.054   -0.076 -0.001  0.803    0.000 -0.109 -0.005
 H         -0.014 -0.024  0.054   -0.101  0.014 -0.406    0.015 -0.085 -0.694
 H         -0.014  0.025  0.054   -0.101 -0.014 -0.398   -0.013 -0.084  0.698
 Cl         0.000 -0.000 -0.521   -0.017 -0.000  0.000    0.000 -0.017  0.000
 TransDip   0.000  0.000  0.000    0.000  0.000  0.000    0.000  0.000  0.000

 Mode:                 7                      8                      9
 Frequency:      1124.41                1405.28                1405.28
 Force Cnst:      0.7859                 1.2663                 1.2663
 Red. Mass:       1.0551                 1.0883                 1.0883
 IR Active:          YES                    YES                    YES
 IR Intens:        0.000                  0.000                  0.000
 Raman Active:       YES                    YES                    YES
               X      Y      Z        X      Y      Z        X      Y      Z
 F         -0.000 -0.000 -0.035    0.000  0.000  0.000    0.000 -0.000  0.000
 C          0.000 -0.000 -0.010   -0.001 -0.086 -0.000   -0.086  0.001 -0.000
 H         -0.096  0.000  0.569   -0.001  0.792  0.002   -0.099 -0.012  0.156
 H          0.048  0.083  0.569   -0.377  0.118 -0.137    0.575 -0.388 -0.076
 H          0.048 -0.083  0.569    0.395  0.129  0.134    0.563  0.384 -0.080
 Cl         0.000  0.000 -0.027   -0.000 -0.001  0.000   -0.001  0.000  0.000
 TransDip   0.000  0.000  0.000    0.000  0.000  0.000    0.000  0.000  0.000

 Mode:                10                     11                     12
 Frequency:      3235.75                3419.23                3419.23
 Force Cnst:      6.2544                 7.7184                 7.7184
 Red. Mass:       1.0139                 1.1205                 1.1205
 IR Active:          YES                    YES                    YES
 IR Intens:        0.000                  0.000                  0.000
 Raman Active:       YES                    YES                    YES
               X      Y      Z        X      Y      Z        X      Y      Z
 F          0.000  0.000 -0.000   -0.000  0.001  0.000    0.001  0.000  0.000
 C         -0.000  0.000 -0.023    0.000 -0.101 -0.000   -0.101 -0.000  0.000
 H          0.569  0.000  0.095   -0.000 -0.015 -0.000    0.799 -0.000  0.144
 H         -0.285 -0.493  0.095    0.353  0.596 -0.125    0.189  0.353 -0.072
 H         -0.285  0.493  0.095   -0.353  0.596  0.125    0.189 -0.353 -0.072
 Cl         0.000  0.000  0.000   -0.000  0.000  0.000    0.000  0.000 -0.000
 TransDip   0.000  0.000  0.000    0.000  0.000  0.000    0.000  0.000  0.000

 STANDARD THERMODYNAMIC QUANTITIES AT   298.15 K  AND     1.00 ATM

   This Molecule has  1 Imaginary Frequencies
   Zero point vibrational energy:       23.781 kcal/mol

   Atom    1 Element F  Has Mass   18.99840
   Atom    2 Element C  Has Mass   12.00000
   Atom    3 Element H  Has Mass    1.00783
   Atom    4 Element H  Has Mass    1.00783
   Atom    5 Element H  Has Mass    1.00783
   Atom    6 Element Cl Has Mass   34.96885
   Molecular Mass:    68.990740 amu
   Principal axes and moments of inertia in atomic units:
                             1           2           3
    Eigenvalues --       12.01300   768.31768   768.31768
          X               0.00000     0.32656     0.94518
          Y               0.00000     0.94518    -0.32656
          Z               1.00000    -0.00000     0.00000
   Rotational Symmetry Number is   3
   The Molecule is a Symmetric Top
   Translational Enthalpy:        0.889 kcal/mol
   Rotational Enthalpy:           0.889 kcal/mol
   Vibrational Enthalpy:         24.796 kcal/mol
   gas constant (RT):             0.592 kcal/mol
   Translational Entropy:        38.611  cal/mol.K
   Rotational Entropy:           21.293  cal/mol.K
   Vibrational Entropy:           5.731  cal/mol.K

   Total Enthalpy:               27.166 kcal/mol
   Total Entropy:                65.636  cal/mol.K

 ======================================================================

 STANDARD THERMODYNAMIC QUANTITIES FOR ANHARMONIC VIBRATION -- TOSH

   Zero point vibrational energy: ************ kcal/mol

   Vibrational Enthalpy:       Infinity kcal/mol
   Vibrational Entropy:             NaN  cal/mol.K

   Total Enthalpy:             Infinity kcal/mol
   Total Entropy:                   NaN  cal/mol.K

 ======================================================================

 STANDARD THERMODYNAMIC QUANTITIES FOR ANHARMONIC VIBRATION -- VPT2

   Zero point vibrational energy: ************ kcal/mol

   Vibrational Enthalpy:       Infinity kcal/mol
   Vibrational Entropy:             NaN  cal/mol.K

   Total Enthalpy:             Infinity kcal/mol
   Total Entropy:                   NaN  cal/mol.K

 ======================================================================

Archival summary:
1\1\Deborahs-MacBook-Air.local\FREQ\MP2\6-311G**\l1113(1-,1)\WedMay714:22:442014WedMay714:22:442014\0\\#,FREQ,MP2,6-311G**,\\-1,1\Cl\C,1,2.02923\H,2,1.07279,1,100.505\H,2,1.07279,1,100.505,3,-120,0\H,2,1.07279,1,100.505,3,120,0\F,2,2.09,1,180,3,0,0\\HF=-598.571433\MP2=-599.166789\\@

 Total job time:  152.74s(wall), 151.93s(cpu) 
 Wed May  7 14:22:44 2014

        *************************************************************
        *                                                           *
        *  Thank you very much for using Q-Chem.  Have a nice day.  *
        *                                                           *
        *************************************************************


