                  Welcome to Q-Chem
     A Quantum Leap Into The Future Of Chemistry

 Y. Shao, L. Fusti-Molnar, Y. Jung, J. Kussmann, C. Ochsenfeld, S. T. Brown, 
 A. T. B. Gilbert, L. V. Slipchenko, S. V. Levchenko, D. P. O'Neill, 
 R. A. DiStasio Jr., R. C. Lochan, T. Wang, G. J. O. Beran, N. A. Besley, 
 J. M. Herbert, C. Y. Lin, T. Van Voorhis, S. H. Chien, A. Sodt, R. P. Steele, 
 V. A. Rassolov, P. E. Maslen, P. P. Korambath, R. D. Adamson, B. Austin, 
 J. Baker, E. F. C. Byrd, H. Dachsel, R. J. Doerksen, A. Dreuw, B. D. Dunietz, 
 A. D. Dutoi, T. R. Furlani, S. R. Gwaltney, A. Heyden, S. Hirata, C.-P. Hsu, 
 G. Kedziora, R. Z. Khaliullin, P. Klunzinger, A. M. Lee, M. S. Lee, W. Liang, 
 I. Lotan, N. Nair, B. Peters, E. I. Proynov, P. A. Pieniazek, Y. M. Rhee, 
 J. Ritchie, E. Rosta, C. D. Sherrill, A. C. Simmonett, J. E. Subotnik, 
 H. L. Woodcock III, W. Zhang, A. T. Bell, A. K. Chakraborty, D. M. Chipman, 
 F. J. Keil, A. Warshel, W. J. Hehre, H. F. Schaefer III, J. Kong, 
 A. I. Krylov, P. M. W. Gill, M. Head-Gordon

 Additional authors for Version 3.1: 
 Z. Gan, Y. Zhao, N. E. Schultz, D. Truhlar, E. Epifanovsky, M. Oana

 Additional authors for Version 3.2: 
 R. Baer, B. R. Brooks, D. Casanova, J.-D. Chai, C.-L. Cheng, C. Cramer, 
 D. Crittenden, A. Ghysels, G. Hawkins, E. G. Hohenstein, C. Kelley, 
 W. Kurlancheek, D. Liotard, E. Livshits, P. Manohar, A. Marenich, 
 D. Neuhauser, R. Olson, M. A. Rohrdanz, K. S. Thanthiriwatte, A. J. W. Thom, 
 V. Vanovschi, C. F. Williams, Q. Wu, Z.-Q. You

 Additional authors for Version 4.0: 
 A. Aspuru-Guzik, Y. Bernard, C. Chang, J. Deng, A. Dreuw, M. Diedenhofen, 
 R. G. Edgar, D. Ghosh, W. A. Goddard III, M. Goldey, L. D. Jacobson, 
 M. Gordon, B. Kaduk, I. Kaliman, K. Khistyaev, R. King, A. Klamt, 
 D. Kosenkov, T. Kus, D. Lambrecht, A. Landau, A. W. Lange, K. Lawler, F. Liu, 
 J. Liu, R. Olivares-Amaya, S. P. Mao, J. Parkhill, N. Russ, M. Schmidt, 
 N. Shenvi, D. Small, Y. C. Su, E. Sundstrom, L. Vogt, O. Vydrov, M. Watson, 
 M. Wormit, X. Xu, S. Yeganeh, I. Y. Zhang, D. Zuev

 Additional authors for Version 4.1: 
 X. Feng, M. W. D. Hanson-Heine, P. Horn, H. Ji, A. Laurent, R. Peverati, 
 N. Mardirossian, N. Sergueev, S. Sharada, P. Zimmerman

 Q-Chem, Version 4.1, Q-Chem, Inc., Pittsburgh, PA (2013).

 Parts of Q-Chem use Armadillo 4.100.2 (Dirt Cruiser).
 http://arma.sourceforge.net/

 MAC (Intel) OSX Version 4.1.2

 Q-chem begins on Sat May 10 14:05:41 2014  

Deborahs-MacBook-Air.local
Host: 0

     Scratch files written to /tmp/qchem33416//
 Apr1114 |Users|Deb|Programs|trunk|libmdc|qstr_info.C -1
Finally everything over in PARseQInput

--------------------------------------------------------------
User input:
--------------------------------------------------------------
$molecule
0 1
X
C X 1.0
N C 1.169686 X 90.0
H C 1.066674 X 90.0 N 180.0
$end

$rem
JOBTYPE OPT
EXCHANGE HF
CORRELATION MP2
BASIS 6-311G**
$end
--------------------------------------------------------------
 ----------------------------------------------------------------
             Standard Nuclear Orientation (Angstroms)
    I     Atom           X                Y                Z
 ----------------------------------------------------------------
    1      C       0.0000000000    -0.0000000000    -0.5086520000
    2      N       0.0000000000    -0.0000000000     0.6610340000
    3      H       0.0000000000     0.0000000000    -1.5753260000
 ----------------------------------------------------------------
 Molecular Point Group                 C*v   NOp =***
 Largest Abelian Subgroup              C2v   NOp =  1
 Nuclear Repulsion Energy =    23.6341762039 hartrees
 There are        7 alpha and        7 beta electrons
 Requested basis set is 6-311G(d,p)
 There are 14 shells and 42 basis functions

Total QAlloc Memory Limit   2000 MB
Mega-Array Size        61 MB
MEM_STATIC part        62 MB
 A cutoff of  1.0D-11 yielded    105 shell pairs
 There are       962 function pairs (      1059 Cartesian)
 Smallest overlap matrix eigenvalue = 4.59E-03

  Scale SEOQF with 1.000000e+00/1.000000e+00/1.000000e-01

 Standard Electronic Orientation quadrupole field applied
 Nucleus-field energy     =    -0.0000000008 hartrees
 Guess from superposition of atomic densities
 Warning:  Energy on first SCF cycle will be non-variational
 A restricted Hartree-Fock SCF calculation will be
 performed using Pulay DIIS extrapolation
 SCF converges when DIIS error is below 1.0E-08
 ---------------------------------------
  Cycle       Energy         DIIS Error
 ---------------------------------------
    1     -93.0197979507      1.04E-01
    2     -92.8427203418      1.39E-02
    3     -92.8625733553      1.32E-02
    4     -92.8943828562      1.23E-03
    5     -92.8951049879      3.24E-04
    6     -92.8951566489      1.10E-04
    7     -92.8951608259      3.72E-05
    8     -92.8951611651      3.97E-06
    9     -92.8951611690      4.22E-07
   10     -92.8951611690      3.29E-08
   11     -92.8951611690      1.14E-08
   12     -92.8951611690      9.88E-09 Convergence criterion met
 ---------------------------------------
 SCF time:  CPU 0.40 s  wall 0.47 s
 SCF   energy in the final basis set = -92.8951611690
 Total energy in the final basis set = -92.8951611690

 Components of the MP2 correlation energy:
        aaaa  correlation energy =        -0.0409410103 au
        abab  correlation energy =        -0.2603169889 au
        bbbb  correlation energy =        -0.0409410103 au
        non-Brillouin singles    =        -0.0000000000 au

 Total  MP2   correlation energy =        -0.3421990094 au
        MP2         total energy =       -93.2373601784 au

  Entering Z-vector solver.
OV_DIM:  Setting MaxSz  = 245
OV_DIM:  Setting MaxSpc = 245
   1         0           1      0.000645    0.000645
   2         0           1      0.000152    0.000152
   3         0           1      0.000075    0.000075
   4         0           1      0.000013    0.000013
   5         0           1      0.000002    0.000002
   6         1           0      0.000000    0.000000    Roots Converged
 Analysis of SCF Wavefunction

 --------------------------------------------------------------
                    Orbital Energies (a.u.)
 --------------------------------------------------------------

 Alpha MOs
 -- Occupied --
-15.603 -11.295  -1.229  -0.813  -0.581  -0.490  -0.490
 -- Virtual --
  0.149   0.174   0.174   0.298   0.575   0.575   0.592   0.745
  0.784   0.898   0.898   1.161   1.372   1.392   1.392   1.501
  1.501   2.069   2.069   2.152   2.382   2.382   2.729   2.927
  2.927   3.094   3.158   3.158   3.396   3.657   4.293   4.293
  4.928  25.399  37.132
 --------------------------------------------------------------

          Ground-State Mulliken Net Atomic Charges

     Atom                 Charge (a.u.)
  ----------------------------------------
      1 C                     0.031344
      2 N                    -0.214858
      3 H                     0.183514
  ----------------------------------------
  Sum of atomic charges =     0.000000

 -----------------------------------------------------------------
                    Cartesian Multipole Moments
 -----------------------------------------------------------------
    Charge (ESU x 10^10)
                 0.0000
    Dipole Moment (Debye)
         X       0.0000      Y      -0.0000      Z      -2.8904
       Tot       2.8904
    Quadrupole Moments (Debye-Ang)
        XX     -11.6323     XY      -0.0000     YY     -11.6323
        XZ      -0.0000     YZ      -0.0000     ZZ      -9.9466
    Octopole Moments (Debye-Ang^2)
       XXX      -0.0000    XXY      -0.0000    XYY      -0.0000
       YYY      -0.0000    XXZ      -0.0851    XYZ       0.0000
       YYZ      -0.0851    XZZ      -0.0000    YZZ      -0.0000
       ZZZ      -7.1872
    Hexadecapole Moments (Debye-Ang^3)
      XXXX     -11.1536   XXXY      -0.0000   XXYY      -3.7179
      XYYY      -0.0000   YYYY     -11.1536   XXXZ      -0.0000
      XXYZ      -0.0000   XYYZ      -0.0000   YYYZ      -0.0000
      XXZZ      -9.1240   XYZZ      -0.0000   YYZZ      -9.1240
      XZZZ      -0.0000   YZZZ      -0.0000   ZZZZ     -36.7040
 -----------------------------------------------------------------
 DrvMan is completing analytic gradient of the MP2 energy
 MP2 relaxed dipole moment
            1
    1   0.0000000
    2  -0.0000000
    3  -1.1371576
	Magnitude:	 1.137 au	 2.890 Debye
 MP2 energy read as -93.237360
 Full Analytical Gradient of MP2 Energy (in au.)
             1             2             3
    1   -0.00000000   -0.00000000    0.00000000
    2    0.00000000   -0.00000000   -0.00000000
    3   -0.00001078    0.00000942    0.00000137
 Gradient time:  CPU 0.00 s  wall 0.00 s
 Geometry Optimization Parameters
   NAtoms,    NIC,     NZ,  NCons,   NDum,   NFix, NCnnct, MaxDiis
        3       9       4       0       0       0       0       0


** GEOMETRY OPTIMIZATION IN DELOCALIZED INTERNAL COORDINATES **
   Searching for a Minimum

   Optimization Cycle:   1

                       Coordinates (Angstroms)
     ATOM                X               Y               Z
      1  C         0.0000000000    0.0000000000   -0.5086520000
      2  N         0.0000000000    0.0000000000    0.6610340000
      3  H         0.0000000000    0.0000000000   -1.5753260000
   Point Group: c*v   Number of degrees of freedom:     2


   Energy is    -93.237360178


 Attempting to Generate Delocalized Internal Coordinates
 GETINT wrote B to file, NVib is            2
 calling HSSCONV
 HCONV 3*NATOMS:            9
 wrote HINT to file
  writing hessian 

  2 Hessian modes will be used to form the next step
  Hessian Eigenvalues:
     0.376536    1.216590

 Minimum Search - Taking Simple RFO Step
 Searching for Lamda that Minimizes Along All modes
 Value Taken    Lamda =   0.00000000
 Step Taken.  Stepsize is  0.000009

                             Maximum     Tolerance    Cnvgd?
         Gradient           0.000008      0.000300     YES
         Displacement       0.000008      0.001200     YES
         Energy change     *********      0.000001      NO


                       Distance Matrix (Angstroms)
             C (  1)   N (  2)
   N (  2)  1.169686
   H (  3)  1.066674  2.236360

 Final energy is   -93.237360178424737     


 ******************************
 **  OPTIMIZATION CONVERGED  **
 ******************************

Z-matrix Print:
$molecule
0 1
C 
H  1 1.066674
N  1 1.169686 2 179.999999
$end

 Analysis of SCF Wavefunction

 --------------------------------------------------------------
                    Orbital Energies (a.u.)
 --------------------------------------------------------------

 Alpha MOs
 -- Occupied --
-15.603 -11.295  -1.229  -0.813  -0.581  -0.490  -0.490
 -- Virtual --
  0.149   0.174   0.174   0.298   0.575   0.575   0.592   0.745
  0.784   0.898   0.898   1.161   1.372   1.392   1.392   1.501
  1.501   2.069   2.069   2.152   2.382   2.382   2.729   2.927
  2.927   3.094   3.158   3.158   3.396   3.657   4.293   4.293
  4.928  25.399  37.132
 --------------------------------------------------------------

          Ground-State Mulliken Net Atomic Charges

     Atom                 Charge (a.u.)
  ----------------------------------------
      1 C                     0.031344
      2 N                    -0.214858
      3 H                     0.183514
  ----------------------------------------
  Sum of atomic charges =     0.000000

 -----------------------------------------------------------------
                    Cartesian Multipole Moments
 -----------------------------------------------------------------
    Charge (ESU x 10^10)
                 0.0000
    Dipole Moment (Debye)
         X       0.0000      Y      -0.0000      Z      -2.8904
       Tot       2.8904
    Quadrupole Moments (Debye-Ang)
        XX     -11.6323     XY      -0.0000     YY     -11.6323
        XZ      -0.0000     YZ      -0.0000     ZZ      -9.9466
    Octopole Moments (Debye-Ang^2)
       XXX      -0.0000    XXY      -0.0000    XYY      -0.0000
       YYY      -0.0000    XXZ      -0.0851    XYZ       0.0000
       YYZ      -0.0851    XZZ      -0.0000    YZZ      -0.0000
       ZZZ      -7.1872
    Hexadecapole Moments (Debye-Ang^3)
      XXXX     -11.1536   XXXY      -0.0000   XXYY      -3.7179
      XYYY      -0.0000   YYYY     -11.1536   XXXZ      -0.0000
      XXYZ      -0.0000   XYYZ      -0.0000   YYYZ      -0.0000
      XXZZ      -9.1240   XYZZ      -0.0000   YYZZ      -9.1240
      XZZZ      -0.0000   YZZZ      -0.0000   ZZZZ     -36.7040
 -----------------------------------------------------------------
Archival summary:
1\1\Deborahs-MacBook-Air.local\OPT\MP2\6-311G**\111\SatMay1014:05:432014SatMay1014:05:432014\0\\#,OPT,MP2,6-311G**,\\0,1\C\H,1,1.06667\N,1,1.16969,2,180\\HF=-92.8951612\MP2=-93.2373602\\@

 Total job time:  1.95s(wall), 1.59s(cpu) 
 Sat May 10 14:05:43 2014

        *************************************************************
        *                                                           *
        *  Thank you very much for using Q-Chem.  Have a nice day.  *
        *                                                           *
        *************************************************************


 
User input: 2 of 2 
 
                  Welcome to Q-Chem
     A Quantum Leap Into The Future Of Chemistry

 Y. Shao, L. Fusti-Molnar, Y. Jung, J. Kussmann, C. Ochsenfeld, S. T. Brown, 
 A. T. B. Gilbert, L. V. Slipchenko, S. V. Levchenko, D. P. O'Neill, 
 R. A. DiStasio Jr., R. C. Lochan, T. Wang, G. J. O. Beran, N. A. Besley, 
 J. M. Herbert, C. Y. Lin, T. Van Voorhis, S. H. Chien, A. Sodt, R. P. Steele, 
 V. A. Rassolov, P. E. Maslen, P. P. Korambath, R. D. Adamson, B. Austin, 
 J. Baker, E. F. C. Byrd, H. Dachsel, R. J. Doerksen, A. Dreuw, B. D. Dunietz, 
 A. D. Dutoi, T. R. Furlani, S. R. Gwaltney, A. Heyden, S. Hirata, C.-P. Hsu, 
 G. Kedziora, R. Z. Khaliullin, P. Klunzinger, A. M. Lee, M. S. Lee, W. Liang, 
 I. Lotan, N. Nair, B. Peters, E. I. Proynov, P. A. Pieniazek, Y. M. Rhee, 
 J. Ritchie, E. Rosta, C. D. Sherrill, A. C. Simmonett, J. E. Subotnik, 
 H. L. Woodcock III, W. Zhang, A. T. Bell, A. K. Chakraborty, D. M. Chipman, 
 F. J. Keil, A. Warshel, W. J. Hehre, H. F. Schaefer III, J. Kong, 
 A. I. Krylov, P. M. W. Gill, M. Head-Gordon

 Additional authors for Version 3.1: 
 Z. Gan, Y. Zhao, N. E. Schultz, D. Truhlar, E. Epifanovsky, M. Oana

 Additional authors for Version 3.2: 
 R. Baer, B. R. Brooks, D. Casanova, J.-D. Chai, C.-L. Cheng, C. Cramer, 
 D. Crittenden, A. Ghysels, G. Hawkins, E. G. Hohenstein, C. Kelley, 
 W. Kurlancheek, D. Liotard, E. Livshits, P. Manohar, A. Marenich, 
 D. Neuhauser, R. Olson, M. A. Rohrdanz, K. S. Thanthiriwatte, A. J. W. Thom, 
 V. Vanovschi, C. F. Williams, Q. Wu, Z.-Q. You

 Additional authors for Version 4.0: 
 A. Aspuru-Guzik, Y. Bernard, C. Chang, J. Deng, A. Dreuw, M. Diedenhofen, 
 R. G. Edgar, D. Ghosh, W. A. Goddard III, M. Goldey, L. D. Jacobson, 
 M. Gordon, B. Kaduk, I. Kaliman, K. Khistyaev, R. King, A. Klamt, 
 D. Kosenkov, T. Kus, D. Lambrecht, A. Landau, A. W. Lange, K. Lawler, F. Liu, 
 J. Liu, R. Olivares-Amaya, S. P. Mao, J. Parkhill, N. Russ, M. Schmidt, 
 N. Shenvi, D. Small, Y. C. Su, E. Sundstrom, L. Vogt, O. Vydrov, M. Watson, 
 M. Wormit, X. Xu, S. Yeganeh, I. Y. Zhang, D. Zuev

 Additional authors for Version 4.1: 
 X. Feng, M. W. D. Hanson-Heine, P. Horn, H. Ji, A. Laurent, R. Peverati, 
 N. Mardirossian, N. Sergueev, S. Sharada, P. Zimmerman

 Q-Chem, Version 4.1, Q-Chem, Inc., Pittsburgh, PA (2013).

 Parts of Q-Chem use Armadillo 4.100.2 (Dirt Cruiser).
 http://arma.sourceforge.net/

 MAC (Intel) OSX Version 4.1.2

 Q-chem begins on Sat May 10 14:05:43 2014  

Deborahs-MacBook-Air.local
Host: 0

     Scratch files written to /tmp/qchem33416//
 Apr1114 |Users|Deb|Programs|trunk|libmdc|qstr_info.C -1

 Q-Chem warning in module /Users/Deb/Programs/trunk/libgen/rem.C, line 2629:

 !!Desired Analytical derivatives not available.

 2-order derivative to be evaluated numerically with 1-order analytical derivatives
Finally everything over in PARseQInput

--------------------------------------------------------------
User input:
--------------------------------------------------------------
$molecule
read
$end

$rem
JOBTYPE FREQ
EXCHANGE HF
CORRELATION MP2
BASIS 6-311G**
SCF_GUESS READ
$end
--------------------------------------------------------------
 ----------------------------------------------------------------
             Standard Nuclear Orientation (Angstroms)
    I     Atom           X                Y                Z
 ----------------------------------------------------------------
    1      C       0.0000000000    -0.0000000000    -0.5086520000
    2      N       0.0000000000    -0.0000000000     0.6610340000
    3      H       0.0000000000     0.0000000000    -1.5753260000
 ----------------------------------------------------------------
 Molecular Point Group                 C*v   NOp =***
 Largest Abelian Subgroup              C2v   NOp =  1
 Nuclear Repulsion Energy =    23.6341762039 hartrees
 There are        7 alpha and        7 beta electrons
 Requested basis set is 6-311G(d,p)
 There are 14 shells and 42 basis functions

Total QAlloc Memory Limit   2000 MB
Mega-Array Size        61 MB
MEM_STATIC part        62 MB

                       Distance Matrix (Angstroms)
             C (  1)   N (  2)
   N (  2)  1.169686
   H (  3)  1.066674  2.236360

 A cutoff of  1.0D-11 yielded    105 shell pairs
 There are       962 function pairs (      1059 Cartesian)
 Smallest overlap matrix eigenvalue = 4.59E-03
 Guess MOs from SCF MO coefficient file
Reading MOs from coefficient file
Reading MOs from coefficient file
 A restricted Hartree-Fock SCF calculation will be
 performed using Pulay DIIS extrapolation
 SCF converges when DIIS error is below 1.0E-08
 ---------------------------------------
  Cycle       Energy         DIIS Error
 ---------------------------------------
    1     -92.8951611666      6.99E-10
    2     -92.8951611666      2.56E-10 Convergence criterion met
 ---------------------------------------
 SCF time:  CPU 0.07 s  wall 0.07 s
 SCF   energy in the final basis set = -92.8951611666
 Total energy in the final basis set = -92.8951611666

 Components of the MP2 correlation energy:
        aaaa  correlation energy =        -0.0409410103 au
        abab  correlation energy =        -0.2603169890 au
        bbbb  correlation energy =        -0.0409410103 au
        non-Brillouin singles    =        -0.0000000000 au

 Total  MP2   correlation energy =        -0.3421990096 au
        MP2         total energy =       -93.2373601761 au

  Entering Z-vector solver.
OV_DIM:  Setting MaxSz  = 245
OV_DIM:  Setting MaxSpc = 245
   1         0           1      0.000645    0.000645
   2         0           1      0.000152    0.000152
   3         0           1      0.000075    0.000075
   4         0           1      0.000013    0.000013
   5         0           1      0.000002    0.000002
   6         1           0      0.000000    0.000000    Roots Converged
 Analysis of SCF Wavefunction

 --------------------------------------------------------------
                    Orbital Energies (a.u.)
 --------------------------------------------------------------

 Alpha MOs
 -- Occupied --
-15.603 -11.295  -1.229  -0.813  -0.581  -0.490  -0.490
 -- Virtual --
  0.149   0.174   0.174   0.298   0.575   0.575   0.592   0.745
  0.784   0.898   0.898   1.161   1.372   1.392   1.392   1.501
  1.501   2.069   2.069   2.152   2.382   2.382   2.729   2.927
  2.927   3.094   3.158   3.158   3.396   3.657   4.293   4.293
  4.928  25.399  37.132
 --------------------------------------------------------------

          Ground-State Mulliken Net Atomic Charges

     Atom                 Charge (a.u.)
  ----------------------------------------
      1 C                     0.031344
      2 N                    -0.214858
      3 H                     0.183514
  ----------------------------------------
  Sum of atomic charges =    -0.000000

 -----------------------------------------------------------------
                    Cartesian Multipole Moments
 -----------------------------------------------------------------
    Charge (ESU x 10^10)
                -0.0000
    Dipole Moment (Debye)
         X       0.0000      Y       0.0000      Z      -2.8904
       Tot       2.8904
    Quadrupole Moments (Debye-Ang)
        XX     -11.6323     XY       0.0000     YY     -11.6323
        XZ      -0.0000     YZ      -0.0000     ZZ      -9.9466
    Octopole Moments (Debye-Ang^2)
       XXX       0.0000    XXY       0.0000    XYY       0.0000
       YYY       0.0000    XXZ      -0.0851    XYZ       0.0000
       YYZ      -0.0851    XZZ      -0.0000    YZZ       0.0000
       ZZZ      -7.1872
    Hexadecapole Moments (Debye-Ang^3)
      XXXX     -11.1536   XXXY       0.0000   XXYY      -3.7179
      XYYY       0.0000   YYYY     -11.1536   XXXZ      -0.0000
      XXYZ      -0.0000   XYYZ      -0.0000   YYYZ      -0.0000
      XXZZ      -9.1240   XYZZ       0.0000   YYZZ      -9.1240
      XZZZ      -0.0000   YZZZ      -0.0000   ZZZZ     -36.7040
 -----------------------------------------------------------------
 DrvMan is completing analytic gradient of the MP2 energy
 MP2 relaxed dipole moment
            1
    1   0.0000000
    2   0.0000000
    3  -1.1371576
	Magnitude:	 1.137 au	 2.890 Debye
 MP2 energy read as -93.237360
 Full Analytical Gradient of MP2 Energy (in au.)
             1             2             3
    1    0.00000000   -0.00000000    0.00000000
    2    0.00000000   -0.00000000   -0.00000000
    3   -0.00001078    0.00000942    0.00000137
 Gradient time:  CPU 0.00 s  wall 0.00 s
 ######################################################
 ######################################################
 # Starting finite difference calculation for IDERIV  #
 Finite diff step size: 1.89e-03 a.u.
 ----------------------------------------------------------------
             Standard Nuclear Orientation (Angstroms)
    I     Atom           X                Y                Z
 ----------------------------------------------------------------
    1      C       0.0010000000    -0.0000000000    -0.5086520000
    2      N       0.0000000000    -0.0000000000     0.6610340000
    3      H       0.0000000000     0.0000000000    -1.5753260000
 ----------------------------------------------------------------
 Nuclear Repulsion Energy =    23.6341679518 hartrees
 There are        7 alpha and        7 beta electrons

                       Distance Matrix (Angstroms)
             C (  1)   N (  2)
   N (  2)  1.169686
   H (  3)  1.066674  2.236360

 Requested basis set is 6-311G(d,p)
 There are 14 shells and 42 basis functions
 A cutoff of  1.0D-11 yielded    105 shell pairs
 There are       962 function pairs (      1059 Cartesian)
 Smallest overlap matrix eigenvalue = 4.59E-03
 Guess MOs from SCF MO coefficient file
Reading MOs from coefficient file
Reading MOs from coefficient file
 A restricted Hartree-Fock SCF calculation will be
 performed using Pulay DIIS extrapolation
 SCF converges when DIIS error is below 1.0E-08
 ---------------------------------------
  Cycle       Energy         DIIS Error
 ---------------------------------------
    1     -92.8951587621      8.58E-05
    2     -92.8951608880      1.01E-05
    3     -92.8951609344      3.53E-06
    4     -92.8951609418      9.25E-07
    5     -92.8951609425      3.59E-07
    6     -92.8951609426      5.59E-08
    7     -92.8951609426      1.26E-08
    8     -92.8951609426      5.73E-09 Convergence criterion met
 ---------------------------------------
 SCF time:  CPU 0.21 s  wall 0.21 s
 SCF   energy in the final basis set = -92.8951609426
 Total energy in the final basis set = -92.8951609426

 Components of the MP2 correlation energy:
        aaaa  correlation energy =        -0.0409410250 au
        abab  correlation energy =        -0.2603170765 au
        bbbb  correlation energy =        -0.0409410250 au
        non-Brillouin singles    =        -0.0000000000 au

 Total  MP2   correlation energy =        -0.3421991265 au
        MP2         total energy =       -93.2373600691 au

  Entering Z-vector solver.
OV_DIM:  Setting MaxSz  = 245
OV_DIM:  Setting MaxSpc = 245
   1         0           1      0.000645    0.000645
   2         0           1      0.000152    0.000152
   3         0           1      0.000075    0.000075
   4         0           1      0.000013    0.000013
   5         0           1      0.000002    0.000002
   6         1           0      0.000000    0.000000    Roots Converged
 Analysis of SCF Wavefunction

 --------------------------------------------------------------
                    Orbital Energies (a.u.)
 --------------------------------------------------------------

 Alpha MOs
 -- Occupied --
-15.603 -11.295  -1.229  -0.813  -0.581  -0.490  -0.490
 -- Virtual --
  0.149   0.174   0.174   0.298   0.575   0.575   0.592   0.745
  0.784   0.898   0.898   1.161   1.372   1.392   1.392   1.501
  1.501   2.069   2.069   2.152   2.382   2.382   2.729   2.927
  2.927   3.094   3.158   3.158   3.396   3.657   4.293   4.293
  4.928  25.399  37.132
 --------------------------------------------------------------

          Ground-State Mulliken Net Atomic Charges

     Atom                 Charge (a.u.)
  ----------------------------------------
      1 C                     0.031343
      2 N                    -0.214858
      3 H                     0.183514
  ----------------------------------------
  Sum of atomic charges =     0.000000

 -----------------------------------------------------------------
                    Cartesian Multipole Moments
 -----------------------------------------------------------------
    Charge (ESU x 10^10)
                 0.0000
    Dipole Moment (Debye)
         X       0.0002      Y       0.0000      Z      -2.8904
       Tot       2.8904
    Quadrupole Moments (Debye-Ang)
        XX     -11.6323     XY      -0.0000     YY     -11.6323
        XZ       0.0004     YZ      -0.0000     ZZ      -9.9466
    Octopole Moments (Debye-Ang^2)
       XXX      -0.0170    XXY       0.0000    XYY      -0.0057
       YYY       0.0000    XXZ      -0.0851    XYZ      -0.0000
       YYZ      -0.0851    XZZ      -0.0059    YZZ       0.0000
       ZZZ      -7.1872
    Hexadecapole Moments (Debye-Ang^3)
      XXXX     -11.1537   XXXY      -0.0000   XXYY      -3.7179
      XYYY      -0.0000   YYYY     -11.1536   XXXZ       0.0084
      XXYZ       0.0000   XYYZ       0.0028   YYYZ       0.0000
      XXZZ      -9.1240   XYZZ      -0.0000   YYZZ      -9.1240
      XZZZ       0.0109   YZZZ       0.0000   ZZZZ     -36.7040
 -----------------------------------------------------------------
 DrvMan is completing analytic gradient of the MP2 energy
 MP2 relaxed dipole moment
            1
    1   0.0000645
    2   0.0000000
    3  -1.1371568
	Magnitude:	 1.137 au	 2.890 Debye
 MP2 energy read as -93.237360
 Full Analytical Gradient of MP2 Energy (in au.)
             1             2             3
    1    0.00011270   -0.00005375   -0.00005895
    2   -0.00000000    0.00000000   -0.00000000
    3   -0.00001121    0.00001011    0.00000110
 Gradient time:  CPU 0.00 s  wall 0.00 s
 ----------------------------------------------------------------
             Standard Nuclear Orientation (Angstroms)
    I     Atom           X                Y                Z
 ----------------------------------------------------------------
    1      C      -0.0010000000    -0.0000000000    -0.5086520000
    2      N       0.0000000000    -0.0000000000     0.6610340000
    3      H       0.0000000000     0.0000000000    -1.5753260000
 ----------------------------------------------------------------
 Nuclear Repulsion Energy =    23.6341679518 hartrees
 There are        7 alpha and        7 beta electrons

                       Distance Matrix (Angstroms)
             C (  1)   N (  2)
   N (  2)  1.169686
   H (  3)  1.066674  2.236360

 Requested basis set is 6-311G(d,p)
 There are 14 shells and 42 basis functions
 A cutoff of  1.0D-11 yielded    105 shell pairs
 There are       962 function pairs (      1059 Cartesian)
 Smallest overlap matrix eigenvalue = 4.59E-03
 Guess MOs from SCF MO coefficient file
Reading MOs from coefficient file
Reading MOs from coefficient file
 A restricted Hartree-Fock SCF calculation will be
 performed using Pulay DIIS extrapolation
 SCF converges when DIIS error is below 1.0E-08
 ---------------------------------------
  Cycle       Energy         DIIS Error
 ---------------------------------------
    1     -92.8951559310      1.72E-04
    2     -92.8951607242      2.02E-05
    3     -92.8951609100      7.07E-06
    4     -92.8951609394      1.85E-06
    5     -92.8951609422      7.22E-07
    6     -92.8951609425      1.60E-07
    7     -92.8951609426      1.01E-07
    8     -92.8951609426      1.59E-08
    9     -92.8951609426      8.28E-09 Convergence criterion met
 ---------------------------------------
 SCF time:  CPU 0.24 s  wall 0.24 s
 SCF   energy in the final basis set = -92.8951609426
 Total energy in the final basis set = -92.8951609426

 Components of the MP2 correlation energy:
        aaaa  correlation energy =        -0.0409410250 au
        abab  correlation energy =        -0.2603170764 au
        bbbb  correlation energy =        -0.0409410250 au
        non-Brillouin singles    =        -0.0000000000 au

 Total  MP2   correlation energy =        -0.3421991265 au
        MP2         total energy =       -93.2373600690 au

  Entering Z-vector solver.
OV_DIM:  Setting MaxSz  = 245
OV_DIM:  Setting MaxSpc = 245
   1         0           1      0.000645    0.000645
   2         0           1      0.000152    0.000152
   3         0           1      0.000075    0.000075
   4         0           1      0.000013    0.000013
   5         0           1      0.000002    0.000002
   6         1           0      0.000000    0.000000    Roots Converged
 Analysis of SCF Wavefunction

 --------------------------------------------------------------
                    Orbital Energies (a.u.)
 --------------------------------------------------------------

 Alpha MOs
 -- Occupied --
-15.603 -11.295  -1.229  -0.813  -0.581  -0.490  -0.490
 -- Virtual --
  0.149   0.174   0.174   0.298   0.575   0.575   0.592   0.745
  0.784   0.898   0.898   1.161   1.372   1.392   1.392   1.501
  1.501   2.069   2.069   2.152   2.382   2.382   2.729   2.927
  2.927   3.094   3.158   3.158   3.396   3.657   4.293   4.293
  4.928  25.399  37.132
 --------------------------------------------------------------

          Ground-State Mulliken Net Atomic Charges

     Atom                 Charge (a.u.)
  ----------------------------------------
      1 C                     0.031343
      2 N                    -0.214858
      3 H                     0.183514
  ----------------------------------------
  Sum of atomic charges =    -0.000000

 -----------------------------------------------------------------
                    Cartesian Multipole Moments
 -----------------------------------------------------------------
    Charge (ESU x 10^10)
                -0.0000
    Dipole Moment (Debye)
         X      -0.0002      Y       0.0000      Z      -2.8904
       Tot       2.8904
    Quadrupole Moments (Debye-Ang)
        XX     -11.6323     XY       0.0000     YY     -11.6323
        XZ      -0.0004     YZ       0.0000     ZZ      -9.9466
    Octopole Moments (Debye-Ang^2)
       XXX       0.0170    XXY       0.0000    XYY       0.0057
       YYY       0.0000    XXZ      -0.0851    XYZ      -0.0000
       YYZ      -0.0851    XZZ       0.0059    YZZ      -0.0000
       ZZZ      -7.1872
    Hexadecapole Moments (Debye-Ang^3)
      XXXX     -11.1537   XXXY       0.0000   XXYY      -3.7179
      XYYY       0.0000   YYYY     -11.1536   XXXZ      -0.0084
      XXYZ      -0.0000   XYYZ      -0.0028   YYYZ      -0.0000
      XXZZ      -9.1240   XYZZ       0.0000   YYZZ      -9.1240
      XZZZ      -0.0109   YZZZ       0.0000   ZZZZ     -36.7040
 -----------------------------------------------------------------
 DrvMan is completing analytic gradient of the MP2 energy
 MP2 relaxed dipole moment
            1
    1  -0.0000644
    2   0.0000000
    3  -1.1371570
	Magnitude:	 1.137 au	 2.890 Debye
 MP2 energy read as -93.237360
 Full Analytical Gradient of MP2 Energy (in au.)
             1             2             3
    1   -0.00011270    0.00005375    0.00005894
    2   -0.00000000    0.00000000   -0.00000000
    3   -0.00001119    0.00001009    0.00000109
 Gradient time:  CPU 0.00 s  wall 0.00 s
 ----------------------------------------------------------------
             Standard Nuclear Orientation (Angstroms)
    I     Atom           X                Y                Z
 ----------------------------------------------------------------
    1      C       0.0000000000     0.0010000000    -0.5086520000
    2      N       0.0000000000    -0.0000000000     0.6610340000
    3      H       0.0000000000     0.0000000000    -1.5753260000
 ----------------------------------------------------------------
 Nuclear Repulsion Energy =    23.6341679518 hartrees
 There are        7 alpha and        7 beta electrons

                       Distance Matrix (Angstroms)
             C (  1)   N (  2)
   N (  2)  1.169686
   H (  3)  1.066674  2.236360

 Requested basis set is 6-311G(d,p)
 There are 14 shells and 42 basis functions
 A cutoff of  1.0D-11 yielded    105 shell pairs
 There are       962 function pairs (      1059 Cartesian)
 Smallest overlap matrix eigenvalue = 4.59E-03
 Guess MOs from SCF MO coefficient file
Reading MOs from coefficient file
Reading MOs from coefficient file
 A restricted Hartree-Fock SCF calculation will be
 performed using Pulay DIIS extrapolation
 SCF converges when DIIS error is below 1.0E-08
 ---------------------------------------
  Cycle       Energy         DIIS Error
 ---------------------------------------
    1     -92.8951584367      1.21E-04
    2     -92.8951608334      1.43E-05
    3     -92.8951609263      5.00E-06
    4     -92.8951609410      1.31E-06
    5     -92.8951609424      5.09E-07
    6     -92.8951609426      8.97E-08
    7     -92.8951609426      5.73E-08
    8     -92.8951609426      1.20E-08
    9     -92.8951609426      7.57E-09 Convergence criterion met
 ---------------------------------------
 SCF time:  CPU 0.24 s  wall 0.24 s
 SCF   energy in the final basis set = -92.8951609426
 Total energy in the final basis set = -92.8951609426

 Components of the MP2 correlation energy:
        aaaa  correlation energy =        -0.0409410251 au
        abab  correlation energy =        -0.2603170767 au
        bbbb  correlation energy =        -0.0409410251 au
        non-Brillouin singles    =        -0.0000000000 au

 Total  MP2   correlation energy =        -0.3421991268 au
        MP2         total energy =       -93.2373600694 au

  Entering Z-vector solver.
OV_DIM:  Setting MaxSz  = 245
OV_DIM:  Setting MaxSpc = 245
   1         0           1      0.000645    0.000645
   2         0           1      0.000152    0.000152
   3         0           1      0.000075    0.000075
   4         0           1      0.000013    0.000013
   5         0           1      0.000002    0.000002
   6         1           0      0.000000    0.000000    Roots Converged
 Analysis of SCF Wavefunction

 --------------------------------------------------------------
                    Orbital Energies (a.u.)
 --------------------------------------------------------------

 Alpha MOs
 -- Occupied --
-15.603 -11.295  -1.229  -0.813  -0.581  -0.490  -0.490
 -- Virtual --
  0.149   0.174   0.174   0.298   0.575   0.575   0.592   0.745
  0.784   0.898   0.898   1.161   1.372   1.392   1.392   1.501
  1.501   2.069   2.069   2.152   2.382   2.382   2.729   2.927
  2.927   3.094   3.158   3.158   3.396   3.657   4.293   4.293
  4.928  25.399  37.132
 --------------------------------------------------------------

          Ground-State Mulliken Net Atomic Charges

     Atom                 Charge (a.u.)
  ----------------------------------------
      1 C                     0.031343
      2 N                    -0.214858
      3 H                     0.183514
  ----------------------------------------
  Sum of atomic charges =     0.000000

 -----------------------------------------------------------------
                    Cartesian Multipole Moments
 -----------------------------------------------------------------
    Charge (ESU x 10^10)
                 0.0000
    Dipole Moment (Debye)
         X      -0.0000      Y       0.0002      Z      -2.8904
       Tot       2.8904
    Quadrupole Moments (Debye-Ang)
        XX     -11.6323     XY       0.0000     YY     -11.6323
        XZ      -0.0000     YZ       0.0004     ZZ      -9.9466
    Octopole Moments (Debye-Ang^2)
       XXX      -0.0000    XXY      -0.0057    XYY      -0.0000
       YYY      -0.0170    XXZ      -0.0851    XYZ      -0.0000
       YYZ      -0.0851    XZZ       0.0000    YZZ      -0.0059
       ZZZ      -7.1872
    Hexadecapole Moments (Debye-Ang^3)
      XXXX     -11.1536   XXXY       0.0000   XXYY      -3.7179
      XYYY       0.0000   YYYY     -11.1537   XXXZ      -0.0000
      XXYZ       0.0028   XYYZ      -0.0000   YYYZ       0.0084
      XXZZ      -9.1240   XYZZ       0.0000   YYZZ      -9.1240
      XZZZ      -0.0000   YZZZ       0.0109   ZZZZ     -36.7040
 -----------------------------------------------------------------
 DrvMan is completing analytic gradient of the MP2 energy
 MP2 relaxed dipole moment
            1
    1  -0.0000000
    2   0.0000645
    3  -1.1371569
	Magnitude:	 1.137 au	 2.890 Debye
 MP2 energy read as -93.237360
 Full Analytical Gradient of MP2 Energy (in au.)
             1             2             3
    1    0.00000000   -0.00000001    0.00000001
    2    0.00011269   -0.00005375   -0.00005894
    3   -0.00001119    0.00001009    0.00000110
 Gradient time:  CPU 0.00 s  wall 0.00 s
 ----------------------------------------------------------------
             Standard Nuclear Orientation (Angstroms)
    I     Atom           X                Y                Z
 ----------------------------------------------------------------
    1      C       0.0000000000    -0.0010000000    -0.5086520000
    2      N       0.0000000000    -0.0000000000     0.6610340000
    3      H       0.0000000000     0.0000000000    -1.5753260000
 ----------------------------------------------------------------
 Nuclear Repulsion Energy =    23.6341679518 hartrees
 There are        7 alpha and        7 beta electrons

                       Distance Matrix (Angstroms)
             C (  1)   N (  2)
   N (  2)  1.169686
   H (  3)  1.066674  2.236360

 Requested basis set is 6-311G(d,p)
 There are 14 shells and 42 basis functions
 A cutoff of  1.0D-11 yielded    105 shell pairs
 There are       962 function pairs (      1059 Cartesian)
 Smallest overlap matrix eigenvalue = 4.59E-03
 Guess MOs from SCF MO coefficient file
Reading MOs from coefficient file
Reading MOs from coefficient file
 A restricted Hartree-Fock SCF calculation will be
 performed using Pulay DIIS extrapolation
 SCF converges when DIIS error is below 1.0E-08
 ---------------------------------------
  Cycle       Energy         DIIS Error
 ---------------------------------------
    1     -92.8951559308      1.72E-04
    2     -92.8951607241      2.02E-05
    3     -92.8951609100      7.07E-06
    4     -92.8951609394      1.85E-06
    5     -92.8951609422      7.22E-07
    6     -92.8951609425      1.55E-07
    7     -92.8951609426      1.00E-07
    8     -92.8951609426      1.60E-08
    9     -92.8951609426      8.43E-09 Convergence criterion met
 ---------------------------------------
 SCF time:  CPU 0.26 s  wall 0.26 s
 SCF   energy in the final basis set = -92.8951609426
 Total energy in the final basis set = -92.8951609426

 Components of the MP2 correlation energy:
        aaaa  correlation energy =        -0.0409410250 au
        abab  correlation energy =        -0.2603170764 au
        bbbb  correlation energy =        -0.0409410250 au
        non-Brillouin singles    =        -0.0000000000 au

 Total  MP2   correlation energy =        -0.3421991265 au
        MP2         total energy =       -93.2373600690 au

  Entering Z-vector solver.
OV_DIM:  Setting MaxSz  = 245
OV_DIM:  Setting MaxSpc = 245
   1         0           1      0.000645    0.000645
   2         0           1      0.000152    0.000152
   3         0           1      0.000075    0.000075
   4         0           1      0.000013    0.000013
   5         0           1      0.000002    0.000002
   6         1           0      0.000000    0.000000    Roots Converged
 Analysis of SCF Wavefunction

 --------------------------------------------------------------
                    Orbital Energies (a.u.)
 --------------------------------------------------------------

 Alpha MOs
 -- Occupied --
-15.603 -11.295  -1.229  -0.813  -0.581  -0.490  -0.490
 -- Virtual --
  0.149   0.174   0.174   0.298   0.575   0.575   0.592   0.745
  0.784   0.898   0.898   1.161   1.372   1.392   1.392   1.501
  1.501   2.069   2.069   2.152   2.382   2.382   2.729   2.927
  2.927   3.094   3.158   3.158   3.396   3.657   4.293   4.293
  4.928  25.399  37.132
 --------------------------------------------------------------

          Ground-State Mulliken Net Atomic Charges

     Atom                 Charge (a.u.)
  ----------------------------------------
      1 C                     0.031343
      2 N                    -0.214858
      3 H                     0.183514
  ----------------------------------------
  Sum of atomic charges =     0.000000

 -----------------------------------------------------------------
                    Cartesian Multipole Moments
 -----------------------------------------------------------------
    Charge (ESU x 10^10)
                 0.0000
    Dipole Moment (Debye)
         X      -0.0000      Y      -0.0002      Z      -2.8904
       Tot       2.8904
    Quadrupole Moments (Debye-Ang)
        XX     -11.6323     XY       0.0000     YY     -11.6323
        XZ      -0.0000     YZ      -0.0004     ZZ      -9.9466
    Octopole Moments (Debye-Ang^2)
       XXX       0.0000    XXY       0.0057    XYY       0.0000
       YYY       0.0170    XXZ      -0.0851    XYZ      -0.0000
       YYZ      -0.0851    XZZ      -0.0000    YZZ       0.0059
       ZZZ      -7.1872
    Hexadecapole Moments (Debye-Ang^3)
      XXXX     -11.1536   XXXY       0.0000   XXYY      -3.7179
      XYYY       0.0000   YYYY     -11.1537   XXXZ      -0.0000
      XXYZ      -0.0028   XYYZ      -0.0000   YYYZ      -0.0084
      XXZZ      -9.1240   XYZZ       0.0000   YYZZ      -9.1240
      XZZZ      -0.0000   YZZZ      -0.0109   ZZZZ     -36.7040
 -----------------------------------------------------------------
 DrvMan is completing analytic gradient of the MP2 energy
 MP2 relaxed dipole moment
            1
    1  -0.0000000
    2  -0.0000644
    3  -1.1371570
	Magnitude:	 1.137 au	 2.890 Debye
 MP2 energy read as -93.237360
 Full Analytical Gradient of MP2 Energy (in au.)
             1             2             3
    1    0.00000000   -0.00000000    0.00000000
    2   -0.00011270    0.00005376    0.00005894
    3   -0.00001119    0.00001009    0.00000109
 Gradient time:  CPU 0.00 s  wall 0.00 s
 ----------------------------------------------------------------
             Standard Nuclear Orientation (Angstroms)
    I     Atom           X                Y                Z
 ----------------------------------------------------------------
    1      C       0.0000000000    -0.0000000000    -0.5076520000
    2      N       0.0000000000    -0.0000000000     0.6610340000
    3      H       0.0000000000     0.0000000000    -1.5753260000
 ----------------------------------------------------------------
 Nuclear Repulsion Energy =    23.6476468783 hartrees
 There are        7 alpha and        7 beta electrons

                       Distance Matrix (Angstroms)
             C (  1)   N (  2)
   N (  2)  1.168686
   H (  3)  1.067674  2.236360

 Requested basis set is 6-311G(d,p)
 There are 14 shells and 42 basis functions
 A cutoff of  1.0D-11 yielded    105 shell pairs
 There are       962 function pairs (      1059 Cartesian)
 Smallest overlap matrix eigenvalue = 4.58E-03
 Guess MOs from SCF MO coefficient file
Reading MOs from coefficient file
Reading MOs from coefficient file
 A restricted Hartree-Fock SCF calculation will be
 performed using Pulay DIIS extrapolation
 SCF converges when DIIS error is below 1.0E-08
 ---------------------------------------
  Cycle       Energy         DIIS Error
 ---------------------------------------
    1     -92.8962954147      2.35E-04
    2     -92.8953569610      3.21E-05
    3     -92.8953571693      2.01E-05
    4     -92.8953572416      5.69E-06
    5     -92.8953572492      1.57E-06
    6     -92.8953572507      5.26E-07
    7     -92.8953572508      1.24E-07
    8     -92.8953572509      2.72E-08
    9     -92.8953572509      6.65E-09 Convergence criterion met
 ---------------------------------------
 SCF time:  CPU 0.25 s  wall 0.25 s
 SCF   energy in the final basis set = -92.8953572509
 Total energy in the final basis set = -92.8953572509

 Components of the MP2 correlation energy:
        aaaa  correlation energy =        -0.0409113263 au
        abab  correlation energy =        -0.2601775158 au
        bbbb  correlation energy =        -0.0409113263 au
        non-Brillouin singles    =        -0.0000000000 au

 Total  MP2   correlation energy =        -0.3420001684 au
        MP2         total energy =       -93.2373574193 au

  Entering Z-vector solver.
OV_DIM:  Setting MaxSz  = 245
OV_DIM:  Setting MaxSpc = 245
   1         0           1      0.000643    0.000643
   2         0           1      0.000151    0.000151
   3         0           1      0.000074    0.000074
   4         0           1      0.000013    0.000013
   5         0           1      0.000002    0.000002
   6         1           0      0.000000    0.000000    Roots Converged
 Analysis of SCF Wavefunction

 --------------------------------------------------------------
                    Orbital Energies (a.u.)
 --------------------------------------------------------------

 Alpha MOs
 -- Occupied --
-15.602 -11.295  -1.230  -0.812  -0.581  -0.490  -0.490
 -- Virtual --
  0.149   0.175   0.175   0.298   0.575   0.575   0.592   0.745
  0.784   0.899   0.899   1.163   1.373   1.392   1.392   1.501
  1.501   2.069   2.069   2.152   2.383   2.383   2.729   2.927
  2.927   3.094   3.158   3.158   3.395   3.657   4.294   4.294
  4.930  25.399  37.134
 --------------------------------------------------------------

          Ground-State Mulliken Net Atomic Charges

     Atom                 Charge (a.u.)
  ----------------------------------------
      1 C                     0.031362
      2 N                    -0.215064
      3 H                     0.183701
  ----------------------------------------
  Sum of atomic charges =    -0.000000

 -----------------------------------------------------------------
                    Cartesian Multipole Moments
 -----------------------------------------------------------------
    Charge (ESU x 10^10)
                 0.0000
    Dipole Moment (Debye)
         X      -0.0000      Y      -0.0000      Z      -2.8923
       Tot       2.8923
    Quadrupole Moments (Debye-Ang)
        XX     -11.6307     XY       0.0000     YY     -11.6307
        XZ       0.0000     YZ      -0.0000     ZZ      -9.9466
    Octopole Moments (Debye-Ang^2)
       XXX      -0.0000    XXY      -0.0000    XYY      -0.0000
       YYY      -0.0000    XXZ      -0.0898    XYZ      -0.0000
       YYZ      -0.0898    XZZ      -0.0000    YZZ       0.0000
       ZZZ      -7.2070
    Hexadecapole Moments (Debye-Ang^3)
      XXXX     -11.1503   XXXY       0.0000   XXYY      -3.7168
      XYYY       0.0000   YYYY     -11.1503   XXXZ       0.0000
      XXYZ      -0.0000   XYYZ       0.0000   YYYZ      -0.0000
      XXZZ      -9.1197   XYZZ       0.0000   YYZZ      -9.1197
      XZZZ       0.0000   YZZZ      -0.0000   ZZZZ     -36.6750
 -----------------------------------------------------------------
 DrvMan is completing analytic gradient of the MP2 energy
 MP2 relaxed dipole moment
            1
    1  -0.0000000
    2  -0.0000001
    3  -1.1379099
	Magnitude:	 1.138 au	 2.892 Debye
 MP2 energy read as -93.237357
 Full Analytical Gradient of MP2 Energy (in au.)
             1             2             3
    1    0.00000000   -0.00000000    0.00000000
    2    0.00000001   -0.00000002    0.00000001
    3    0.00289307   -0.00207775   -0.00081532
 Gradient time:  CPU 0.00 s  wall 0.00 s
 ----------------------------------------------------------------
             Standard Nuclear Orientation (Angstroms)
    I     Atom           X                Y                Z
 ----------------------------------------------------------------
    1      C       0.0000000000    -0.0000000000    -0.5096520000
    2      N       0.0000000000    -0.0000000000     0.6610340000
    3      H       0.0000000000     0.0000000000    -1.5753260000
 ----------------------------------------------------------------
 Nuclear Repulsion Energy =    23.6207385379 hartrees
 There are        7 alpha and        7 beta electrons

                       Distance Matrix (Angstroms)
             C (  1)   N (  2)
   N (  2)  1.170686
   H (  3)  1.065674  2.236360

 Requested basis set is 6-311G(d,p)
 There are 14 shells and 42 basis functions
 A cutoff of  1.0D-11 yielded    105 shell pairs
 There are       962 function pairs (      1059 Cartesian)
 Smallest overlap matrix eigenvalue = 4.59E-03
 Guess MOs from SCF MO coefficient file
Reading MOs from coefficient file
Reading MOs from coefficient file
 A restricted Hartree-Fock SCF calculation will be
 performed using Pulay DIIS extrapolation
 SCF converges when DIIS error is below 1.0E-08
 ---------------------------------------
  Cycle       Energy         DIIS Error
 ---------------------------------------
    1     -92.8930910856      4.36E-04
    2     -92.8949582761      6.11E-05
    3     -92.8949589333      3.93E-05
    4     -92.8949592007      9.69E-06
    5     -92.8949592184      1.97E-06
    6     -92.8949592204      7.23E-07
    7     -92.8949592205      1.34E-07
    8     -92.8949592205      1.78E-08
    9     -92.8949592205      1.40E-09 Convergence criterion met
 ---------------------------------------
 SCF time:  CPU 0.24 s  wall 0.25 s
 SCF   energy in the final basis set = -92.8949592205
 Total energy in the final basis set = -92.8949592205

 Components of the MP2 correlation energy:
        aaaa  correlation energy =        -0.0409707573 au
        abab  correlation energy =        -0.2604567189 au
        bbbb  correlation energy =        -0.0409707573 au
        non-Brillouin singles    =        -0.0000000000 au

 Total  MP2   correlation energy =        -0.3423982336 au
        MP2         total energy =       -93.2373574541 au

  Entering Z-vector solver.
OV_DIM:  Setting MaxSz  = 245
OV_DIM:  Setting MaxSpc = 245
   1         0           1      0.000646    0.000646
   2         0           1      0.000152    0.000152
   3         0           1      0.000075    0.000075
   4         0           1      0.000013    0.000013
   5         0           1      0.000002    0.000002
   6         1           0      0.000000    0.000000    Roots Converged
 Analysis of SCF Wavefunction

 --------------------------------------------------------------
                    Orbital Energies (a.u.)
 --------------------------------------------------------------

 Alpha MOs
 -- Occupied --
-15.603 -11.296  -1.229  -0.813  -0.581  -0.490  -0.490
 -- Virtual --
  0.149   0.174   0.174   0.298   0.576   0.576   0.592   0.745
  0.785   0.898   0.898   1.160   1.372   1.392   1.392   1.501
  1.501   2.069   2.069   2.151   2.382   2.382   2.729   2.926
  2.926   3.095   3.158   3.158   3.398   3.656   4.292   4.292
  4.927  25.398  37.130
 --------------------------------------------------------------

          Ground-State Mulliken Net Atomic Charges

     Atom                 Charge (a.u.)
  ----------------------------------------
      1 C                     0.031327
      2 N                    -0.214653
      3 H                     0.183326
  ----------------------------------------
  Sum of atomic charges =     0.000000

 -----------------------------------------------------------------
                    Cartesian Multipole Moments
 -----------------------------------------------------------------
    Charge (ESU x 10^10)
                 0.0000
    Dipole Moment (Debye)
         X      -0.0000      Y      -0.0000      Z      -2.8884
       Tot       2.8884
    Quadrupole Moments (Debye-Ang)
        XX     -11.6340     XY       0.0000     YY     -11.6340
        XZ       0.0000     YZ      -0.0000     ZZ      -9.9465
    Octopole Moments (Debye-Ang^2)
       XXX       0.0000    XXY      -0.0000    XYY       0.0000
       YYY      -0.0000    XXZ      -0.0804    XYZ      -0.0000
       YYZ      -0.0804    XZZ      -0.0000    YZZ      -0.0000
       ZZZ      -7.1674
    Hexadecapole Moments (Debye-Ang^3)
      XXXX     -11.1570   XXXY       0.0000   XXYY      -3.7190
      XYYY       0.0000   YYYY     -11.1570   XXXZ       0.0000
      XXYZ      -0.0000   XYYZ       0.0000   YYYZ      -0.0000
      XXZZ      -9.1283   XYZZ       0.0000   YYZZ      -9.1283
      XZZZ       0.0000   YZZZ      -0.0000   ZZZZ     -36.7330
 -----------------------------------------------------------------
 DrvMan is completing analytic gradient of the MP2 energy
 MP2 relaxed dipole moment
            1
    1  -0.0000000
    2  -0.0000000
    3  -1.1364035
	Magnitude:	 1.136 au	 2.888 Debye
 MP2 energy read as -93.237357
 Full Analytical Gradient of MP2 Energy (in au.)
             1             2             3
    1    0.00000000    0.00000000   -0.00000000
    2    0.00000000   -0.00000000    0.00000000
    3   -0.00290464    0.00208215    0.00082249
 Gradient time:  CPU 0.00 s  wall 0.00 s
 ----------------------------------------------------------------
             Standard Nuclear Orientation (Angstroms)
    I     Atom           X                Y                Z
 ----------------------------------------------------------------
    1      C       0.0000000000    -0.0000000000    -0.5086520000
    2      N       0.0010000000    -0.0000000000     0.6610340000
    3      H       0.0000000000     0.0000000000    -1.5753260000
 ----------------------------------------------------------------
 Nuclear Repulsion Energy =    23.6341690942 hartrees
 There are        7 alpha and        7 beta electrons

                       Distance Matrix (Angstroms)
             C (  1)   N (  2)
   N (  2)  1.169686
   H (  3)  1.066674  2.236360

 Requested basis set is 6-311G(d,p)
 There are 14 shells and 42 basis functions
 A cutoff of  1.0D-11 yielded    105 shell pairs
 There are       962 function pairs (      1059 Cartesian)
 Smallest overlap matrix eigenvalue = 4.59E-03
 Guess MOs from SCF MO coefficient file
Reading MOs from coefficient file
Reading MOs from coefficient file
 A restricted Hartree-Fock SCF calculation will be
 performed using Pulay DIIS extrapolation
 SCF converges when DIIS error is below 1.0E-08
 ---------------------------------------
  Cycle       Energy         DIIS Error
 ---------------------------------------
    1     -92.8960971239      2.34E-04
    2     -92.8951607542      3.21E-05
    3     -92.8951609633      2.02E-05
    4     -92.8951610366      5.81E-06
    5     -92.8951610451      1.75E-06
    6     -92.8951610471      6.18E-07
    7     -92.8951610473      1.37E-07
    8     -92.8951610473      2.80E-08
    9     -92.8951610473      6.83E-09 Convergence criterion met
 ---------------------------------------
 SCF time:  CPU 0.24 s  wall 0.24 s
 SCF   energy in the final basis set = -92.8951610473
 Total energy in the final basis set = -92.8951610473

 Components of the MP2 correlation energy:
        aaaa  correlation energy =        -0.0409410235 au
        abab  correlation energy =        -0.2603170569 au
        bbbb  correlation energy =        -0.0409410235 au
        non-Brillouin singles    =        -0.0000000000 au

 Total  MP2   correlation energy =        -0.3421991039 au
        MP2         total energy =       -93.2373601512 au

  Entering Z-vector solver.
OV_DIM:  Setting MaxSz  = 245
OV_DIM:  Setting MaxSpc = 245
   1         0           1      0.000645    0.000645
   2         0           1      0.000152    0.000152
   3         0           1      0.000075    0.000075
   4         0           1      0.000013    0.000013
   5         0           1      0.000002    0.000002
   6         1           0      0.000000    0.000000    Roots Converged
 Analysis of SCF Wavefunction

 --------------------------------------------------------------
                    Orbital Energies (a.u.)
 --------------------------------------------------------------

 Alpha MOs
 -- Occupied --
-15.603 -11.295  -1.229  -0.813  -0.581  -0.490  -0.490
 -- Virtual --
  0.149   0.174   0.174   0.298   0.575   0.575   0.592   0.745
  0.784   0.898   0.898   1.161   1.372   1.392   1.392   1.501
  1.501   2.069   2.069   2.152   2.382   2.382   2.729   2.927
  2.927   3.094   3.158   3.158   3.396   3.657   4.293   4.293
  4.928  25.399  37.132
 --------------------------------------------------------------

          Ground-State Mulliken Net Atomic Charges

     Atom                 Charge (a.u.)
  ----------------------------------------
      1 C                     0.031344
      2 N                    -0.214858
      3 H                     0.183514
  ----------------------------------------
  Sum of atomic charges =     0.000000

 -----------------------------------------------------------------
                    Cartesian Multipole Moments
 -----------------------------------------------------------------
    Charge (ESU x 10^10)
                 0.0000
    Dipole Moment (Debye)
         X      -0.0014      Y      -0.0000      Z      -2.8904
       Tot       2.8904
    Quadrupole Moments (Debye-Ang)
        XX     -11.6323     XY      -0.0000     YY     -11.6323
        XZ      -0.0015     YZ      -0.0000     ZZ      -9.9466
    Octopole Moments (Debye-Ang^2)
       XXX      -0.0166    XXY      -0.0000    XYY      -0.0055
       YYY      -0.0000    XXZ      -0.0851    XYZ      -0.0000
       YYZ      -0.0851    XZZ      -0.0073    YZZ      -0.0000
       ZZZ      -7.1872
    Hexadecapole Moments (Debye-Ang^3)
      XXXX     -11.1537   XXXY      -0.0000   XXYY      -3.7179
      XYYY      -0.0000   YYYY     -11.1536   XXXZ      -0.0114
      XXYZ      -0.0000   XYYZ      -0.0038   YYYZ      -0.0000
      XXZZ      -9.1240   XYZZ      -0.0000   YYZZ      -9.1240
      XZZZ      -0.0145   YZZZ      -0.0000   ZZZZ     -36.7040
 -----------------------------------------------------------------
 DrvMan is completing analytic gradient of the MP2 energy
 MP2 relaxed dipole moment
            1
    1  -0.0005392
    2  -0.0000000
    3  -1.1371570
	Magnitude:	 1.137 au	 2.890 Debye
 MP2 energy read as -93.237360
 Full Analytical Gradient of MP2 Energy (in au.)
             1             2             3
    1   -0.00005376    0.00002565    0.00002811
    2    0.00000000   -0.00000000    0.00000000
    3   -0.00001165    0.00001025    0.00000139
 Gradient time:  CPU 0.00 s  wall 0.00 s
 ----------------------------------------------------------------
             Standard Nuclear Orientation (Angstroms)
    I     Atom           X                Y                Z
 ----------------------------------------------------------------
    1      C       0.0000000000    -0.0000000000    -0.5086520000
    2      N      -0.0010000000    -0.0000000000     0.6610340000
    3      H       0.0000000000     0.0000000000    -1.5753260000
 ----------------------------------------------------------------
 Nuclear Repulsion Energy =    23.6341690942 hartrees
 There are        7 alpha and        7 beta electrons

                       Distance Matrix (Angstroms)
             C (  1)   N (  2)
   N (  2)  1.169686
   H (  3)  1.066674  2.236360

 Requested basis set is 6-311G(d,p)
 There are 14 shells and 42 basis functions
 A cutoff of  1.0D-11 yielded    105 shell pairs
 There are       962 function pairs (      1059 Cartesian)
 Smallest overlap matrix eigenvalue = 4.59E-03
 Guess MOs from SCF MO coefficient file
Reading MOs from coefficient file
Reading MOs from coefficient file
 A restricted Hartree-Fock SCF calculation will be
 performed using Pulay DIIS extrapolation
 SCF converges when DIIS error is below 1.0E-08
 ---------------------------------------
  Cycle       Energy         DIIS Error
 ---------------------------------------
    1     -92.8951565372      1.68E-04
    2     -92.8951608160      2.03E-05
    3     -92.8951610059      7.60E-06
    4     -92.8951610421      2.36E-06
    5     -92.8951610467      8.64E-07
    6     -92.8951610473      1.89E-07
    7     -92.8951610473      8.92E-08
    8     -92.8951610473      1.20E-08
    9     -92.8951610473      5.54E-09 Convergence criterion met
 ---------------------------------------
 SCF time:  CPU 0.24 s  wall 0.24 s
 SCF   energy in the final basis set = -92.8951610473
 Total energy in the final basis set = -92.8951610473

 Components of the MP2 correlation energy:
        aaaa  correlation energy =        -0.0409410235 au
        abab  correlation energy =        -0.2603170570 au
        bbbb  correlation energy =        -0.0409410235 au
        non-Brillouin singles    =        -0.0000000000 au

 Total  MP2   correlation energy =        -0.3421991040 au
        MP2         total energy =       -93.2373601513 au

  Entering Z-vector solver.
OV_DIM:  Setting MaxSz  = 245
OV_DIM:  Setting MaxSpc = 245
   1         0           1      0.000645    0.000645
   2         0           1      0.000152    0.000152
   3         0           1      0.000075    0.000075
   4         0           1      0.000013    0.000013
   5         0           1      0.000002    0.000002
   6         1           0      0.000000    0.000000    Roots Converged
 Analysis of SCF Wavefunction

 --------------------------------------------------------------
                    Orbital Energies (a.u.)
 --------------------------------------------------------------

 Alpha MOs
 -- Occupied --
-15.603 -11.295  -1.229  -0.813  -0.581  -0.490  -0.490
 -- Virtual --
  0.149   0.174   0.174   0.298   0.575   0.575   0.592   0.745
  0.784   0.898   0.898   1.161   1.372   1.392   1.392   1.501
  1.501   2.069   2.069   2.152   2.382   2.382   2.729   2.927
  2.927   3.094   3.158   3.158   3.396   3.657   4.293   4.293
  4.928  25.399  37.132
 --------------------------------------------------------------

          Ground-State Mulliken Net Atomic Charges

     Atom                 Charge (a.u.)
  ----------------------------------------
      1 C                     0.031344
      2 N                    -0.214858
      3 H                     0.183514
  ----------------------------------------
  Sum of atomic charges =     0.000000

 -----------------------------------------------------------------
                    Cartesian Multipole Moments
 -----------------------------------------------------------------
    Charge (ESU x 10^10)
                 0.0000
    Dipole Moment (Debye)
         X       0.0014      Y      -0.0000      Z      -2.8904
       Tot       2.8904
    Quadrupole Moments (Debye-Ang)
        XX     -11.6323     XY      -0.0000     YY     -11.6323
        XZ       0.0015     YZ       0.0000     ZZ      -9.9466
    Octopole Moments (Debye-Ang^2)
       XXX       0.0166    XXY       0.0000    XYY       0.0055
       YYY       0.0000    XXZ      -0.0851    XYZ       0.0000
       YYZ      -0.0851    XZZ       0.0073    YZZ      -0.0000
       ZZZ      -7.1872
    Hexadecapole Moments (Debye-Ang^3)
      XXXX     -11.1537   XXXY      -0.0000   XXYY      -3.7179
      XYYY      -0.0000   YYYY     -11.1536   XXXZ       0.0114
      XXYZ      -0.0000   XYYZ       0.0038   YYYZ      -0.0000
      XXZZ      -9.1240   XYZZ      -0.0000   YYZZ      -9.1240
      XZZZ       0.0145   YZZZ       0.0000   ZZZZ     -36.7040
 -----------------------------------------------------------------
 DrvMan is completing analytic gradient of the MP2 energy
 MP2 relaxed dipole moment
            1
    1   0.0005392
    2  -0.0000000
    3  -1.1371573
	Magnitude:	 1.137 au	 2.890 Debye
 MP2 energy read as -93.237360
 Full Analytical Gradient of MP2 Energy (in au.)
             1             2             3
    1    0.00005375   -0.00002564   -0.00002811
    2    0.00000000   -0.00000000    0.00000000
    3   -0.00001162    0.00001024    0.00000138
 Gradient time:  CPU 0.00 s  wall 0.00 s
 ----------------------------------------------------------------
             Standard Nuclear Orientation (Angstroms)
    I     Atom           X                Y                Z
 ----------------------------------------------------------------
    1      C       0.0000000000    -0.0000000000    -0.5086520000
    2      N       0.0000000000     0.0010000000     0.6610340000
    3      H       0.0000000000     0.0000000000    -1.5753260000
 ----------------------------------------------------------------
 Nuclear Repulsion Energy =    23.6341690942 hartrees
 There are        7 alpha and        7 beta electrons

                       Distance Matrix (Angstroms)
             C (  1)   N (  2)
   N (  2)  1.169686
   H (  3)  1.066674  2.236360

 Requested basis set is 6-311G(d,p)
 There are 14 shells and 42 basis functions
 A cutoff of  1.0D-11 yielded    105 shell pairs
 There are       962 function pairs (      1059 Cartesian)
 Smallest overlap matrix eigenvalue = 4.59E-03
 Guess MOs from SCF MO coefficient file
Reading MOs from coefficient file
Reading MOs from coefficient file
 A restricted Hartree-Fock SCF calculation will be
 performed using Pulay DIIS extrapolation
 SCF converges when DIIS error is below 1.0E-08
 ---------------------------------------
  Cycle       Energy         DIIS Error
 ---------------------------------------
    1     -92.8951587922      1.19E-04
    2     -92.8951609317      1.43E-05
    3     -92.8951610266      5.38E-06
    4     -92.8951610447      1.67E-06
    5     -92.8951610470      6.08E-07
    6     -92.8951610473      9.15E-08
    7     -92.8951610473      6.25E-08
    8     -92.8951610473      8.68E-09 Convergence criterion met
 ---------------------------------------
 SCF time:  CPU 0.22 s  wall 0.22 s
 SCF   energy in the final basis set = -92.8951610473
 Total energy in the final basis set = -92.8951610473

 Components of the MP2 correlation energy:
        aaaa  correlation energy =        -0.0409410236 au
        abab  correlation energy =        -0.2603170578 au
        bbbb  correlation energy =        -0.0409410236 au
        non-Brillouin singles    =        -0.0000000000 au

 Total  MP2   correlation energy =        -0.3421991051 au
        MP2         total energy =       -93.2373601524 au

  Entering Z-vector solver.
OV_DIM:  Setting MaxSz  = 245
OV_DIM:  Setting MaxSpc = 245
   1         0           1      0.000645    0.000645
   2         0           1      0.000152    0.000152
   3         0           1      0.000075    0.000075
   4         0           1      0.000013    0.000013
   5         0           1      0.000002    0.000002
   6         1           0      0.000000    0.000000    Roots Converged
 Analysis of SCF Wavefunction

 --------------------------------------------------------------
                    Orbital Energies (a.u.)
 --------------------------------------------------------------

 Alpha MOs
 -- Occupied --
-15.603 -11.295  -1.229  -0.813  -0.581  -0.490  -0.490
 -- Virtual --
  0.149   0.174   0.174   0.298   0.575   0.575   0.592   0.745
  0.784   0.898   0.898   1.161   1.372   1.392   1.392   1.501
  1.501   2.069   2.069   2.152   2.382   2.382   2.729   2.927
  2.927   3.094   3.158   3.158   3.396   3.657   4.293   4.293
  4.928  25.399  37.132
 --------------------------------------------------------------

          Ground-State Mulliken Net Atomic Charges

     Atom                 Charge (a.u.)
  ----------------------------------------
      1 C                     0.031344
      2 N                    -0.214858
      3 H                     0.183514
  ----------------------------------------
  Sum of atomic charges =     0.000000

 -----------------------------------------------------------------
                    Cartesian Multipole Moments
 -----------------------------------------------------------------
    Charge (ESU x 10^10)
                 0.0000
    Dipole Moment (Debye)
         X       0.0000      Y      -0.0014      Z      -2.8904
       Tot       2.8904
    Quadrupole Moments (Debye-Ang)
        XX     -11.6323     XY       0.0000     YY     -11.6323
        XZ       0.0000     YZ      -0.0015     ZZ      -9.9466
    Octopole Moments (Debye-Ang^2)
       XXX       0.0000    XXY      -0.0055    XYY       0.0000
       YYY      -0.0166    XXZ      -0.0851    XYZ      -0.0000
       YYZ      -0.0851    XZZ      -0.0000    YZZ      -0.0073
       ZZZ      -7.1872
    Hexadecapole Moments (Debye-Ang^3)
      XXXX     -11.1536   XXXY       0.0000   XXYY      -3.7179
      XYYY       0.0000   YYYY     -11.1537   XXXZ       0.0000
      XXYZ      -0.0038   XYYZ       0.0000   YYYZ      -0.0114
      XXZZ      -9.1240   XYZZ       0.0000   YYZZ      -9.1240
      XZZZ       0.0000   YZZZ      -0.0145   ZZZZ     -36.7040
 -----------------------------------------------------------------
 DrvMan is completing analytic gradient of the MP2 energy
 MP2 relaxed dipole moment
            1
    1   0.0000000
    2  -0.0005392
    3  -1.1371570
	Magnitude:	 1.137 au	 2.890 Debye
 MP2 energy read as -93.237360
 Full Analytical Gradient of MP2 Energy (in au.)
             1             2             3
    1    0.00000001   -0.00000000   -0.00000001
    2   -0.00005375    0.00002564    0.00002811
    3   -0.00001164    0.00001024    0.00000139
 Gradient time:  CPU 0.00 s  wall 0.00 s
 ----------------------------------------------------------------
             Standard Nuclear Orientation (Angstroms)
    I     Atom           X                Y                Z
 ----------------------------------------------------------------
    1      C       0.0000000000    -0.0000000000    -0.5086520000
    2      N       0.0000000000    -0.0010000000     0.6610340000
    3      H       0.0000000000     0.0000000000    -1.5753260000
 ----------------------------------------------------------------
 Nuclear Repulsion Energy =    23.6341690942 hartrees
 There are        7 alpha and        7 beta electrons

                       Distance Matrix (Angstroms)
             C (  1)   N (  2)
   N (  2)  1.169686
   H (  3)  1.066674  2.236360

 Requested basis set is 6-311G(d,p)
 There are 14 shells and 42 basis functions
 A cutoff of  1.0D-11 yielded    105 shell pairs
 There are       962 function pairs (      1059 Cartesian)
 Smallest overlap matrix eigenvalue = 4.59E-03
 Guess MOs from SCF MO coefficient file
Reading MOs from coefficient file
Reading MOs from coefficient file
 A restricted Hartree-Fock SCF calculation will be
 performed using Pulay DIIS extrapolation
 SCF converges when DIIS error is below 1.0E-08
 ---------------------------------------
  Cycle       Energy         DIIS Error
 ---------------------------------------
    1     -92.8951565370      1.68E-04
    2     -92.8951608160      2.03E-05
    3     -92.8951610059      7.60E-06
    4     -92.8951610421      2.36E-06
    5     -92.8951610467      8.65E-07
    6     -92.8951610473      1.89E-07
    7     -92.8951610473      8.91E-08
    8     -92.8951610473      1.20E-08
    9     -92.8951610473      5.53E-09 Convergence criterion met
 ---------------------------------------
 SCF time:  CPU 0.24 s  wall 0.24 s
 SCF   energy in the final basis set = -92.8951610473
 Total energy in the final basis set = -92.8951610473

 Components of the MP2 correlation energy:
        aaaa  correlation energy =        -0.0409410235 au
        abab  correlation energy =        -0.2603170570 au
        bbbb  correlation energy =        -0.0409410235 au
        non-Brillouin singles    =        -0.0000000000 au

 Total  MP2   correlation energy =        -0.3421991040 au
        MP2         total energy =       -93.2373601513 au

  Entering Z-vector solver.
OV_DIM:  Setting MaxSz  = 245
OV_DIM:  Setting MaxSpc = 245
   1         0           1      0.000645    0.000645
   2         0           1      0.000152    0.000152
   3         0           1      0.000075    0.000075
   4         0           1      0.000013    0.000013
   5         0           1      0.000002    0.000002
   6         1           0      0.000000    0.000000    Roots Converged
 Analysis of SCF Wavefunction

 --------------------------------------------------------------
                    Orbital Energies (a.u.)
 --------------------------------------------------------------

 Alpha MOs
 -- Occupied --
-15.603 -11.295  -1.229  -0.813  -0.581  -0.490  -0.490
 -- Virtual --
  0.149   0.174   0.174   0.298   0.575   0.575   0.592   0.745
  0.784   0.898   0.898   1.161   1.372   1.392   1.392   1.501
  1.501   2.069   2.069   2.152   2.382   2.382   2.729   2.927
  2.927   3.094   3.158   3.158   3.396   3.657   4.293   4.293
  4.928  25.399  37.132
 --------------------------------------------------------------

          Ground-State Mulliken Net Atomic Charges

     Atom                 Charge (a.u.)
  ----------------------------------------
      1 C                     0.031344
      2 N                    -0.214858
      3 H                     0.183514
  ----------------------------------------
  Sum of atomic charges =     0.000000

 -----------------------------------------------------------------
                    Cartesian Multipole Moments
 -----------------------------------------------------------------
    Charge (ESU x 10^10)
                 0.0000
    Dipole Moment (Debye)
         X      -0.0000      Y       0.0014      Z      -2.8904
       Tot       2.8904
    Quadrupole Moments (Debye-Ang)
        XX     -11.6323     XY       0.0000     YY     -11.6323
        XZ       0.0000     YZ       0.0015     ZZ      -9.9466
    Octopole Moments (Debye-Ang^2)
       XXX      -0.0000    XXY       0.0055    XYY      -0.0000
       YYY       0.0166    XXZ      -0.0851    XYZ      -0.0000
       YYZ      -0.0851    XZZ       0.0000    YZZ       0.0073
       ZZZ      -7.1872
    Hexadecapole Moments (Debye-Ang^3)
      XXXX     -11.1536   XXXY       0.0000   XXYY      -3.7179
      XYYY       0.0000   YYYY     -11.1537   XXXZ      -0.0000
      XXYZ       0.0038   XYYZ      -0.0000   YYYZ       0.0114
      XXZZ      -9.1240   XYZZ       0.0000   YYZZ      -9.1240
      XZZZ      -0.0000   YZZZ       0.0145   ZZZZ     -36.7040
 -----------------------------------------------------------------
 DrvMan is completing analytic gradient of the MP2 energy
 MP2 relaxed dipole moment
            1
    1  -0.0000000
    2   0.0005392
    3  -1.1371573
	Magnitude:	 1.137 au	 2.890 Debye
 MP2 energy read as -93.237360
 Full Analytical Gradient of MP2 Energy (in au.)
             1             2             3
    1   -0.00000000    0.00000000    0.00000000
    2    0.00005375   -0.00002564   -0.00002811
    3   -0.00001162    0.00001024    0.00000138
 Gradient time:  CPU 0.00 s  wall 0.00 s
 ----------------------------------------------------------------
             Standard Nuclear Orientation (Angstroms)
    I     Atom           X                Y                Z
 ----------------------------------------------------------------
    1      C       0.0000000000    -0.0000000000    -0.5086520000
    2      N       0.0000000000    -0.0000000000     0.6620340000
    3      H       0.0000000000     0.0000000000    -1.5753260000
 ----------------------------------------------------------------
 Nuclear Repulsion Energy =    23.6172050511 hartrees
 There are        7 alpha and        7 beta electrons

                       Distance Matrix (Angstroms)
             C (  1)   N (  2)
   N (  2)  1.170686
   H (  3)  1.066674  2.237360

 Requested basis set is 6-311G(d,p)
 There are 14 shells and 42 basis functions
 A cutoff of  1.0D-11 yielded    105 shell pairs
 There are       962 function pairs (      1059 Cartesian)
 Smallest overlap matrix eigenvalue = 4.60E-03
 Guess MOs from SCF MO coefficient file
Reading MOs from coefficient file
Reading MOs from coefficient file
 A restricted Hartree-Fock SCF calculation will be
 performed using Pulay DIIS extrapolation
 SCF converges when DIIS error is below 1.0E-08
 ---------------------------------------
  Cycle       Energy         DIIS Error
 ---------------------------------------
    1     -92.8935302021      2.03E-04
    2     -92.8949482639      2.90E-05
    3     -92.8949484849      1.19E-05
    4     -92.8949485125      4.40E-06
    5     -92.8949485176      2.12E-06
    6     -92.8949485195      6.09E-07
    7     -92.8949485198      1.22E-07
    8     -92.8949485198      2.45E-08
    9     -92.8949485198      6.60E-09 Convergence criterion met
 ---------------------------------------
 SCF time:  CPU 0.24 s  wall 0.24 s
 SCF   energy in the final basis set = -92.8949485198
 Total energy in the final basis set = -92.8949485198

 Components of the MP2 correlation energy:
        aaaa  correlation energy =        -0.0409712462 au
        abab  correlation energy =        -0.2604672466 au
        bbbb  correlation energy =        -0.0409712462 au
        non-Brillouin singles    =        -0.0000000000 au

 Total  MP2   correlation energy =        -0.3424097390 au
        MP2         total energy =       -93.2373582588 au

  Entering Z-vector solver.
OV_DIM:  Setting MaxSz  = 245
OV_DIM:  Setting MaxSpc = 245
   1         0           1      0.000647    0.000647
   2         0           1      0.000152    0.000152
   3         0           1      0.000075    0.000075
   4         0           1      0.000013    0.000013
   5         0           1      0.000002    0.000002
   6         1           0      0.000000    0.000000    Roots Converged
 Analysis of SCF Wavefunction

 --------------------------------------------------------------
                    Orbital Energies (a.u.)
 --------------------------------------------------------------

 Alpha MOs
 -- Occupied --
-15.603 -11.296  -1.229  -0.813  -0.581  -0.490  -0.490
 -- Virtual --
  0.149   0.174   0.174   0.298   0.576   0.576   0.592   0.745
  0.784   0.898   0.898   1.160   1.372   1.391   1.391   1.501
  1.501   2.068   2.068   2.151   2.382   2.382   2.729   2.926
  2.926   3.094   3.157   3.157   3.397   3.655   4.292   4.292
  4.927  25.396  37.130
 --------------------------------------------------------------

          Ground-State Mulliken Net Atomic Charges

     Atom                 Charge (a.u.)
  ----------------------------------------
      1 C                     0.031113
      2 N                    -0.214656
      3 H                     0.183544
  ----------------------------------------
  Sum of atomic charges =     0.000000

 -----------------------------------------------------------------
                    Cartesian Multipole Moments
 -----------------------------------------------------------------
    Charge (ESU x 10^10)
[...]
 ---------------------------------------
    1     -92.8956538049      7.47E-05
    2     -92.8951718656      1.37E-05
    3     -92.8951718913      1.16E-05
    4     -92.8951719163      1.29E-06
    5     -92.8951719170      4.49E-07
    6     -92.8951719171      1.66E-07
    7     -92.8951719171      4.86E-08
    8     -92.8951719171      1.07E-08
    9     -92.8951719171      1.96E-09 Convergence criterion met
 ---------------------------------------
 SCF time:  CPU 0.25 s  wall 0.25 s
 SCF   energy in the final basis set = -92.8951719171
 Total energy in the final basis set = -92.8951719171

 Components of the MP2 correlation energy:
        aaaa  correlation energy =        -0.0409405244 au
        abab  correlation energy =        -0.2603064660 au
        bbbb  correlation energy =        -0.0409405244 au
        non-Brillouin singles    =        -0.0000000000 au

 Total  MP2   correlation energy =        -0.3421875147 au
        MP2         total energy =       -93.2373594318 au

  Entering Z-vector solver.
OV_DIM:  Setting MaxSz  = 245
OV_DIM:  Setting MaxSpc = 245
   1         0           1      0.000644    0.000644
   2         0           1      0.000151    0.000151
   3         0           1      0.000075    0.000075
   4         0           1      0.000013    0.000013
   5         0           1      0.000002    0.000002
   6         1           0      0.000000    0.000000    Roots Converged
 Analysis of SCF Wavefunction

 --------------------------------------------------------------
                    Orbital Energies (a.u.)
 --------------------------------------------------------------

 Alpha MOs
 -- Occupied --
-15.603 -11.295  -1.229  -0.813  -0.581  -0.490  -0.490
 -- Virtual --
  0.149   0.174   0.174   0.299   0.575   0.575   0.592   0.745
  0.785   0.898   0.898   1.161   1.372   1.392   1.392   1.501
  1.501   2.070   2.070   2.152   2.382   2.382   2.729   2.927
  2.927   3.095   3.158   3.158   3.397   3.657   4.293   4.293
  4.929  25.400  37.132
 --------------------------------------------------------------

          Ground-State Mulliken Net Atomic Charges

     Atom                 Charge (a.u.)
  ----------------------------------------
      1 C                     0.031558
      2 N                    -0.214855
      3 H                     0.183297
  ----------------------------------------
  Sum of atomic charges =    -0.000000

 -----------------------------------------------------------------
                    Cartesian Multipole Moments
 -----------------------------------------------------------------
    Charge (ESU x 10^10)
                -0.0000
    Dipole Moment (Debye)
         X       0.0000      Y      -0.0000      Z      -2.8892
       Tot       2.8892
    Quadrupole Moments (Debye-Ang)
        XX     -11.6311     XY       0.0000     YY     -11.6311
        XZ       0.0000     YZ      -0.0000     ZZ      -9.9500
    Octopole Moments (Debye-Ang^2)
       XXX      -0.0000    XXY       0.0000    XYY      -0.0000
       YYY       0.0000    XXZ      -0.0872    XYZ      -0.0000
       YYZ      -0.0872    XZZ      -0.0000    YZZ      -0.0000
       ZZZ      -7.1809
    Hexadecapole Moments (Debye-Ang^3)
      XXXX     -11.1517   XXXY       0.0000   XXYY      -3.7172
      XYYY       0.0000   YYYY     -11.1517   XXXZ       0.0000
      XXYZ      -0.0000   XYYZ       0.0000   YYYZ      -0.0000
      XXZZ      -9.1198   XYZZ       0.0000   YYZZ      -9.1198
      XZZZ       0.0000   YZZZ      -0.0000   ZZZZ     -36.7106
 -----------------------------------------------------------------
 DrvMan is completing analytic gradient of the MP2 energy
 MP2 relaxed dipole moment
            1
    1   0.0000000
    2  -0.0000000
    3  -1.1366910
	Magnitude:	 1.137 au	 2.889 Debye
 MP2 energy read as -93.237359
 Full Analytical Gradient of MP2 Energy (in au.)
             1             2             3
    1    0.00000000   -0.00000000   -0.00000000
    2    0.00000001   -0.00000001   -0.00000000
    3   -0.00083189    0.00004072    0.00079117
 Gradient time:  CPU 0.00 s  wall 0.00 s
 ----------------------------------------------------------------
             Standard Nuclear Orientation (Angstroms)
    I     Atom           X                Y                Z
 ----------------------------------------------------------------
    1      C       0.0000000000    -0.0000000000    -0.5086520000
    2      N       0.0000000000    -0.0000000000     0.6610340000
    3      H       0.0000000000     0.0000000000    -1.5763260000
 ----------------------------------------------------------------
 Nuclear Repulsion Energy =    23.6306479494 hartrees
 There are        7 alpha and        7 beta electrons

                       Distance Matrix (Angstroms)
             C (  1)   N (  2)
   N (  2)  1.169686
   H (  3)  1.067674  2.237360

 Requested basis set is 6-311G(d,p)
 There are 14 shells and 42 basis functions
 A cutoff of  1.0D-11 yielded    105 shell pairs
 There are       962 function pairs (      1059 Cartesian)
 Smallest overlap matrix eigenvalue = 4.59E-03
 Guess MOs from SCF MO coefficient file
Reading MOs from coefficient file
Reading MOs from coefficient file
 A restricted Hartree-Fock SCF calculation will be
 performed using Pulay DIIS extrapolation
 SCF converges when DIIS error is below 1.0E-08
 ---------------------------------------
  Cycle       Energy         DIIS Error
 ---------------------------------------
    1     -92.8941865637      1.46E-04
    2     -92.8951487346      2.66E-05
    3     -92.8951488185      2.29E-05
    4     -92.8951489136      1.74E-06
    5     -92.8951489143      3.87E-07
    6     -92.8951489143      8.44E-08
    7     -92.8951489143      1.35E-08
    8     -92.8951489143      1.58E-09 Convergence criterion met
 ---------------------------------------
 SCF time:  CPU 0.26 s  wall 0.26 s
 SCF   energy in the final basis set = -92.8951489143
 Total energy in the final basis set = -92.8951489143

 Components of the MP2 correlation energy:
        aaaa  correlation energy =        -0.0409414983 au
        abab  correlation energy =        -0.2603275209 au
        bbbb  correlation energy =        -0.0409414983 au
        non-Brillouin singles    =        -0.0000000000 au

 Total  MP2   correlation energy =        -0.3422105175 au
        MP2         total energy =       -93.2373594318 au

  Entering Z-vector solver.
OV_DIM:  Setting MaxSz  = 245
OV_DIM:  Setting MaxSpc = 245
   1         0           1      0.000645    0.000645
   2         0           1      0.000152    0.000152
   3         0           1      0.000075    0.000075
   4         0           1      0.000013    0.000013
   5         0           1      0.000002    0.000002
   6         1           0      0.000000    0.000000    Roots Converged
 Analysis of SCF Wavefunction

 --------------------------------------------------------------
                    Orbital Energies (a.u.)
 --------------------------------------------------------------

 Alpha MOs
 -- Occupied --
-15.603 -11.295  -1.229  -0.812  -0.581  -0.490  -0.490
 -- Virtual --
  0.149   0.174   0.174   0.298   0.575   0.575   0.592   0.745
  0.784   0.898   0.898   1.161   1.373   1.392   1.392   1.501
  1.501   2.068   2.068   2.151   2.382   2.382   2.729   2.926
  2.926   3.093   3.158   3.158   3.396   3.656   4.293   4.293
  4.928  25.397  37.132
 --------------------------------------------------------------

          Ground-State Mulliken Net Atomic Charges

     Atom                 Charge (a.u.)
  ----------------------------------------
      1 C                     0.031131
      2 N                    -0.214861
      3 H                     0.183731
  ----------------------------------------
  Sum of atomic charges =     0.000000

 -----------------------------------------------------------------
                    Cartesian Multipole Moments
 -----------------------------------------------------------------
    Charge (ESU x 10^10)
                 0.0000
    Dipole Moment (Debye)
         X      -0.0000      Y      -0.0000      Z      -2.8916
       Tot       2.8916
    Quadrupole Moments (Debye-Ang)
        XX     -11.6336     XY      -0.0000     YY     -11.6336
        XZ       0.0000     YZ      -0.0000     ZZ      -9.9431
    Octopole Moments (Debye-Ang^2)
       XXX      -0.0000    XXY      -0.0000    XYY      -0.0000
       YYY      -0.0000    XXZ      -0.0830    XYZ       0.0000
       YYZ      -0.0830    XZZ      -0.0000    YZZ      -0.0000
       ZZZ      -7.1935
    Hexadecapole Moments (Debye-Ang^3)
      XXXX     -11.1556   XXXY      -0.0000   XXYY      -3.7185
      XYYY      -0.0000   YYYY     -11.1556   XXXZ       0.0000
      XXYZ      -0.0000   XYYZ       0.0000   YYYZ      -0.0000
      XXZZ      -9.1283   XYZZ      -0.0000   YYZZ      -9.1283
      XZZZ       0.0000   YZZZ      -0.0000   ZZZZ     -36.6974
 -----------------------------------------------------------------
 DrvMan is completing analytic gradient of the MP2 energy
 MP2 relaxed dipole moment
            1
    1  -0.0000000
    2  -0.0000000
    3  -1.1376241
	Magnitude:	 1.138 au	 2.892 Debye
 MP2 energy read as -93.237359
 Full Analytical Gradient of MP2 Energy (in au.)
             1             2             3
    1   -0.00000000   -0.00000000    0.00000000
    2    0.00000000   -0.00000000    0.00000000
    3    0.00080590   -0.00002187   -0.00078403
 Gradient time:  CPU 0.00 s  wall 0.00 s
Dipole drv :
gprntSymmMtrx error report: 
 Final Hessian.
            1           2           3           4           5           6
    1   0.0596364   0.0000000   0.0000000  -0.0284458   0.0000015   0.0000000
    2   0.0000000   0.0596355   0.0000005   0.0000000  -0.0284437  -0.0000009
    3   0.0000000   0.0000005   1.5340075  -0.0000036  -0.0000046  -1.1006622
    4  -0.0284458   0.0000000  -0.0000036   0.0135709  -0.0000002   0.0000000
    5   0.0000015  -0.0284437  -0.0000046  -0.0000002   0.0135670   0.0000021
    6   0.0000000  -0.0000009  -1.1006622   0.0000000   0.0000021   1.0840977
    7  -0.0311880   0.0000000   0.0000008   0.0148717   0.0000000  -0.0000003
    8   0.0000005  -0.0311883   0.0000009  -0.0000005   0.0148725  -0.0000006
    9   0.0000000   0.0000018  -0.4333447   0.0000000   0.0000011   0.0165642
            7           8           9
    1  -0.0311880   0.0000005   0.0000000
    2   0.0000000  -0.0311883   0.0000018
    3   0.0000008   0.0000009  -0.4333447
    4   0.0148717  -0.0000005   0.0000000
    5   0.0000000   0.0148725   0.0000011
    6  -0.0000003  -0.0000006   0.0165642
    7   0.0163170   0.0000000   0.0000000
    8   0.0000000   0.0163164  -0.0000001
    9   0.0000000  -0.0000001   0.4167802
 ----------------------------------------------------------------
             Standard Nuclear Orientation (Angstroms)
    I     Atom           X                Y                Z
 ----------------------------------------------------------------
    1      C       0.0000000000    -0.0000000000    -0.5086520000
    2      N       0.0000000000    -0.0000000000     0.6610340000
    3      H       0.0000000000     0.0000000000    -1.5753260000
 ----------------------------------------------------------------
 Nuclear Repulsion Energy =    23.6341762039 hartrees
 There are        7 alpha and        7 beta electrons
 old dipole drv.
            1           2           3           4           5           6
    1   0.0341087  -0.0000121   0.0000000  -0.2853397   0.0000129   0.0000000
    2   0.0000000   0.0341004  -0.0000156  -0.0000000  -0.2853385   0.0000114
    3   0.0000463   0.0000241  -0.3985647   0.0000688   0.0000683   0.1516604
            7           8           9
    1   0.2512198  -0.0000000   0.0000000
    2   0.0000000   0.2512267  -0.0000000
    3  -0.0000208  -0.0000001   0.2468952
 New transposed dipole drv.
            1           2           3
    1   0.0341087   0.0000000   0.0000463
    2  -0.0000121   0.0341004   0.0000241
    3   0.0000000  -0.0000156  -0.3985647
    4  -0.2853397  -0.0000000   0.0000688
    5   0.0000129  -0.2853385   0.0000683
    6   0.0000000   0.0000114   0.1516604
    7   0.2512198   0.0000000  -0.0000208
    8  -0.0000000   0.2512267  -0.0000001
    9   0.0000000  -0.0000000   0.2468952
FINAL TENSOR RESULT:
Order 2, Length 9
    Atom      X          Y          Z
     1 Order 1, Length 9
    Atom      X          Y          Z
     1    5.963638527147409e-02   2.145187126824559e-08   0.000000000000000e+00
     2   -2.844581750483993e-02   1.486666491723387e-06   0.000000000000000e+00
     3   -3.118802944479490e-02   4.772292469282424e-07   0.000000000000000e+00

Order 1, Length 9
    Atom      X          Y          Z
     1    2.145187126824559e-08   5.963554873380804e-02   4.959312181249625e-07
     2    0.000000000000000e+00  -2.844370115159288e-02  -9.102140571326867e-07
     3    0.000000000000000e+00  -3.118827103033436e-02   1.761597558220793e-06

Order 1, Length 9
    Atom      X          Y          Z
     1    0.000000000000000e+00   4.959312181249625e-07   1.534007487464037e+00
     2   -3.565325848193111e-06  -4.625887889795192e-06  -1.100662238365676e+00
     3    8.108931185476427e-07   8.886924069104082e-07  -4.333446647432503e-01


     2 Order 1, Length 9
    Atom      X          Y          Z
     1   -2.844581750483993e-02   0.000000000000000e+00  -3.565325848193111e-06
     2    1.357094801882669e-02  -2.008907820905050e-07   0.000000000000000e+00
     3    1.487166585069406e-02  -4.853194102182603e-07   0.000000000000000e+00

Order 1, Length 9
    Atom      X          Y          Z
     1    1.486666491723387e-06  -2.844370115159288e-02  -4.625887889795192e-06
     2   -2.008907820905050e-07   1.356696553246105e-02   2.056402768272459e-06
     3    0.000000000000000e+00   1.487253153930627e-02   1.075967607476360e-06

Order 1, Length 9
    Atom      X          Y          Z
     1    0.000000000000000e+00  -9.102140571326867e-07  -1.100662238365676e+00
     2    0.000000000000000e+00   2.056402768272459e-06   1.084097675017462e+00
     3   -2.906402748417488e-07  -6.063249806365467e-07   1.656424636291921e-02


     3 Order 1, Length 9
    Atom      X          Y          Z
     1   -3.118802944479490e-02   0.000000000000000e+00   8.108931185476427e-07
     2    1.487166585069406e-02   0.000000000000000e+00  -2.906402748417488e-07
     3    1.631702890754118e-02   8.089918817612565e-09   0.000000000000000e+00

Order 1, Length 9
    Atom      X          Y          Z
     1    4.772292469282424e-07  -3.118827103033436e-02   8.886924069104082e-07
     2   -4.853194102182603e-07   1.487253153930627e-02  -6.063249806365467e-07
     3    8.089918817612565e-09   1.631636701877575e-02  -1.361134010306094e-07

Order 1, Length 9
    Atom      X          Y          Z
     1    0.000000000000000e+00   1.761597558220793e-06  -4.333446647432503e-01
     2    0.000000000000000e+00   1.075967607476360e-06   1.656424636291921e-02
     3    0.000000000000000e+00  -1.361134010306094e-07   4.167801508864342e-01




 # Finishing finite difference calculation for IDERIV #
 ######################################################
 ######################################################
 Requested basis set is 6-311G(d,p)
 There are 14 shells and 42 basis functions
 **********************************************************************
 **                                                                  **
 **                       VIBRATIONAL ANALYSIS                       **
 **                       --------------------                       **
 **                                                                  **
 **        VIBRATIONAL FREQUENCIES (CM**-1) AND NORMAL MODES         **
 **     FORCE CONSTANTS (mDYN/ANGSTROM) AND REDUCED MASSES (AMU)     **
 **                  INFRARED INTENSITIES (KM/MOL)                   **
 **                                                                  **
 **********************************************************************


 Mode:                 1                      2                      3
 Frequency:       764.65                 764.65                2026.63
 Force Cnst:      0.4607                 0.4607                13.9302
 Red. Mass:       1.3373                 1.3373                 5.7565
 IR Active:          YES                    YES                    YES
 IR Intens:        0.000                  0.000                  0.000
 Raman Active:       YES                    YES                    YES
               X      Y      Z        X      Y      Z        X      Y      Z
 C         -0.031 -0.155 -0.000   -0.155  0.031 -0.000    0.000  0.000 -0.449
 N          0.013  0.063  0.000    0.063 -0.013  0.000   -0.000 -0.000  0.441
 H          0.195  0.966  0.000    0.966 -0.195 -0.000   -0.000 -0.000 -0.777
 TransDip   0.000  0.000  0.000    0.000  0.000  0.000    0.000  0.000  0.000

 Mode:                 4
 Frequency:      3499.18
 Force Cnst:      8.3672
 Red. Mass:       1.1598
 IR Active:          YES
 IR Intens:        0.000
 Raman Active:       YES
               X      Y      Z        X      Y      Z        X      Y      Z
 C          0.000  0.000 -0.114
 N         -0.000 -0.000  0.026
 H         -0.000 -0.000  0.993
 TransDip   0.000  0.000  0.000

 STANDARD THERMODYNAMIC QUANTITIES AT   298.15 K  AND     1.00 ATM

   This Molecule has  0 Imaginary Frequencies
   Zero point vibrational energy:       10.086 kcal/mol

   Atom    1 Element C  Has Mass   12.00000
   Atom    2 Element N  Has Mass   14.00307
   Atom    3 Element H  Has Mass    1.00783
   Molecular Mass:    27.010900 amu
   Principal axes and moments of inertia in atomic units:
                             1           2           3
    Eigenvalues --        0.00000    41.54574    41.54574
          X              -0.00000     0.97943    -0.20180
          Y              -0.00000     0.20180     0.97943
          Z               1.00000     0.00000    -0.00000
   Rotational Symmetry Number is   1
   The Molecule is a Symmetric Top
   Translational Enthalpy:        0.889 kcal/mol
   Rotational Enthalpy:           0.592 kcal/mol
   Vibrational Enthalpy:         10.198 kcal/mol
   gas constant (RT):             0.592 kcal/mol
   Translational Entropy:        35.816  cal/mol.K
   Rotational Entropy:           11.849  cal/mol.K
   Vibrational Entropy:           0.477  cal/mol.K

   Total Enthalpy:               12.272 kcal/mol
   Total Entropy:                48.143  cal/mol.K

 ======================================================================

 STANDARD THERMODYNAMIC QUANTITIES FOR ANHARMONIC VIBRATION -- TOSH

   Zero point vibrational energy: ************ kcal/mol

   Vibrational Enthalpy:       Infinity kcal/mol
   Vibrational Entropy:             NaN  cal/mol.K

   Total Enthalpy:             Infinity kcal/mol
   Total Entropy:                   NaN  cal/mol.K

 ======================================================================

 STANDARD THERMODYNAMIC QUANTITIES FOR ANHARMONIC VIBRATION -- VPT2

   Zero point vibrational energy: ************ kcal/mol

   Vibrational Enthalpy:       Infinity kcal/mol
   Vibrational Entropy:             NaN  cal/mol.K

   Total Enthalpy:             Infinity kcal/mol
   Total Entropy:                   NaN  cal/mol.K

 ======================================================================

Archival summary:
1\1\Deborahs-MacBook-Air.local\FREQ\MP2\6-311G**\111\SatMay1014:06:062014SatMay1014:06:062014\0\\#,FREQ,MP2,6-311G**,\\0,1\C\H,1,1.06667\N,1,1.16969,2,180\\HF=-92.8951489\MP2=-93.2373594\\@

 Total job time:  22.59s(wall), 22.32s(cpu) 
 Sat May 10 14:06:06 2014

        *************************************************************
        *                                                           *
        *  Thank you very much for using Q-Chem.  Have a nice day.  *
        *                                                           *
        *************************************************************


