/Users/Deb/Programs/trunk/build/qcprog.exe .hcn_hnc.inp.26844.qcin.1 /tmp/qchem26844/

                  Welcome to Q-Chem
     A Quantum Leap Into The Future Of Chemistry

 Y. Shao, L. Fusti-Molnar, Y. Jung, J. Kussmann, C. Ochsenfeld, S. T. Brown, 
 A. T. B. Gilbert, L. V. Slipchenko, S. V. Levchenko, D. P. O'Neill, 
 R. A. DiStasio Jr., R. C. Lochan, T. Wang, G. J. O. Beran, N. A. Besley, 
 J. M. Herbert, C. Y. Lin, T. Van Voorhis, S. H. Chien, A. Sodt, R. P. Steele, 
 V. A. Rassolov, P. E. Maslen, P. P. Korambath, R. D. Adamson, B. Austin, 
 J. Baker, E. F. C. Byrd, H. Dachsel, R. J. Doerksen, A. Dreuw, B. D. Dunietz, 
 A. D. Dutoi, T. R. Furlani, S. R. Gwaltney, A. Heyden, S. Hirata, C.-P. Hsu, 
 G. Kedziora, R. Z. Khaliullin, P. Klunzinger, A. M. Lee, M. S. Lee, W. Liang, 
 I. Lotan, N. Nair, B. Peters, E. I. Proynov, P. A. Pieniazek, Y. M. Rhee, 
 J. Ritchie, E. Rosta, C. D. Sherrill, A. C. Simmonett, J. E. Subotnik, 
 H. L. Woodcock III, W. Zhang, A. T. Bell, A. K. Chakraborty, D. M. Chipman, 
 F. J. Keil, A. Warshel, W. J. Hehre, H. F. Schaefer III, J. Kong, 
 A. I. Krylov, P. M. W. Gill, M. Head-Gordon

 Additional authors for Version 3.1: 
 Z. Gan, Y. Zhao, N. E. Schultz, D. Truhlar, E. Epifanovsky, M. Oana

 Additional authors for Version 3.2: 
 R. Baer, B. R. Brooks, D. Casanova, J.-D. Chai, C.-L. Cheng, C. Cramer, 
 D. Crittenden, A. Ghysels, G. Hawkins, E. G. Hohenstein, C. Kelley, 
 W. Kurlancheek, D. Liotard, E. Livshits, P. Manohar, A. Marenich, 
 D. Neuhauser, R. Olson, M. A. Rohrdanz, K. S. Thanthiriwatte, A. J. W. Thom, 
 V. Vanovschi, C. F. Williams, Q. Wu, Z.-Q. You

 Additional authors for Version 4.0: 
 A. Aspuru-Guzik, Y. Bernard, C. Chang, J. Deng, A. Dreuw, M. Diedenhofen, 
 R. G. Edgar, D. Ghosh, W. A. Goddard III, M. Goldey, L. D. Jacobson, 
 M. Gordon, B. Kaduk, I. Kaliman, K. Khistyaev, R. King, A. Klamt, 
 D. Kosenkov, T. Kus, D. Lambrecht, A. Landau, A. W. Lange, K. Lawler, F. Liu, 
 J. Liu, R. Olivares-Amaya, S. P. Mao, J. Parkhill, N. Russ, M. Schmidt, 
 N. Shenvi, D. Small, Y. C. Su, E. Sundstrom, L. Vogt, O. Vydrov, M. Watson, 
 M. Wormit, X. Xu, S. Yeganeh, I. Y. Zhang, D. Zuev

 Additional authors for Version 4.1: 
 X. Feng, M. W. D. Hanson-Heine, P. Horn, H. Ji, A. Laurent, R. Peverati, 
 N. Mardirossian, N. Sergueev, S. Sharada, P. Zimmerman

 Q-Chem, Version 4.1, Q-Chem, Inc., Pittsburgh, PA (2013).

 Parts of Q-Chem use Armadillo 4.100.2 (Dirt Cruiser).
 http://arma.sourceforge.net/

 MAC (Intel) OSX Version 4.1.2

 Q-chem begins on Tue May  6 12:23:38 2014  

Deborahs-MacBook-Air.local
Host: 0

     Scratch files written to /tmp/qchem26844//
 Apr1114 |Users|Deb|Programs|trunk|libmdc|qstr_info.C -1
Finally everything over in PARseQInput

--------------------------------------------------------------
User input:
--------------------------------------------------------------
$molecule
0 1
X
C X 1.0
N C 1.169686 X 90.0
H C 1.066674 X 90.0 N 180.0
$end

$rem
JOBTYPE OPT
EXCHANGE HF
CORRELATION MP2
BASIS 6-311G**
$end
--------------------------------------------------------------
 ----------------------------------------------------------------
             Standard Nuclear Orientation (Angstroms)
    I     Atom           X                Y                Z
 ----------------------------------------------------------------
    1      C       0.0000000000    -0.0000000000    -0.5086520000
    2      N       0.0000000000    -0.0000000000     0.6610340000
    3      H       0.0000000000     0.0000000000    -1.5753260000
 ----------------------------------------------------------------
 Molecular Point Group                 C*v   NOp =***
 Largest Abelian Subgroup              C2v   NOp =  1
 Nuclear Repulsion Energy =    23.6341762039 hartrees
 There are        7 alpha and        7 beta electrons
 Requested basis set is 6-311G(d,p)
 There are 14 shells and 42 basis functions

Total QAlloc Memory Limit   2000 MB
Mega-Array Size        61 MB
MEM_STATIC part        62 MB
 A cutoff of  1.0D-11 yielded    105 shell pairs
 There are       962 function pairs (      1059 Cartesian)
 Smallest overlap matrix eigenvalue = 4.59E-03

  Scale SEOQF with 1.000000e+00/1.000000e+00/1.000000e-01

 Standard Electronic Orientation quadrupole field applied
 Nucleus-field energy     =    -0.0000000008 hartrees
 Guess from superposition of atomic densities
 Warning:  Energy on first SCF cycle will be non-variational
 A restricted Hartree-Fock SCF calculation will be
 performed using Pulay DIIS extrapolation
 SCF converges when DIIS error is below 1.0E-08
 ---------------------------------------
  Cycle       Energy         DIIS Error
 ---------------------------------------
    1     -93.0197979507      1.04E-01
    2     -92.8427203418      1.39E-02
    3     -92.8625733553      1.32E-02
    4     -92.8943828562      1.23E-03
    5     -92.8951049879      3.24E-04
    6     -92.8951566489      1.10E-04
    7     -92.8951608259      3.72E-05
    8     -92.8951611651      3.97E-06
    9     -92.8951611690      4.22E-07
   10     -92.8951611690      3.29E-08
   11     -92.8951611690      1.14E-08
   12     -92.8951611690      9.88E-09 Convergence criterion met
 ---------------------------------------
 SCF time:  CPU 0.32 s  wall 0.32 s
 SCF   energy in the final basis set = -92.8951611690
 Total energy in the final basis set = -92.8951611690

 Components of the MP2 correlation energy:
        aaaa  correlation energy =        -0.0409410103 au
        abab  correlation energy =        -0.2603169889 au
        bbbb  correlation energy =        -0.0409410103 au
        non-Brillouin singles    =        -0.0000000000 au

 Total  MP2   correlation energy =        -0.3421990094 au
        MP2         total energy =       -93.2373601784 au

  Entering Z-vector solver.
OV_DIM:  Setting MaxSz  = 245
OV_DIM:  Setting MaxSpc = 245
   1         0           1      0.000645    0.000645
   2         0           1      0.000152    0.000152
   3         0           1      0.000075    0.000075
   4         0           1      0.000013    0.000013
   5         0           1      0.000002    0.000002
   6         1           0      0.000000    0.000000    Roots Converged
 Analysis of SCF Wavefunction

 --------------------------------------------------------------
                    Orbital Energies (a.u.)
 --------------------------------------------------------------

 Alpha MOs
 -- Occupied --
-15.603 -11.295  -1.229  -0.813  -0.581  -0.490  -0.490
 -- Virtual --
  0.149   0.174   0.174   0.298   0.575   0.575   0.592   0.745
  0.784   0.898   0.898   1.161   1.372   1.392   1.392   1.501
  1.501   2.069   2.069   2.152   2.382   2.382   2.729   2.927
  2.927   3.094   3.158   3.158   3.396   3.657   4.293   4.293
  4.928  25.399  37.132
 --------------------------------------------------------------

          Ground-State Mulliken Net Atomic Charges

     Atom                 Charge (a.u.)
  ----------------------------------------
      1 C                     0.031344
      2 N                    -0.214858
      3 H                     0.183514
  ----------------------------------------
  Sum of atomic charges =     0.000000

 -----------------------------------------------------------------
                    Cartesian Multipole Moments
 -----------------------------------------------------------------
    Charge (ESU x 10^10)
                 0.0000
    Dipole Moment (Debye)
         X       0.0000      Y      -0.0000      Z      -2.8904
       Tot       2.8904
    Quadrupole Moments (Debye-Ang)
        XX     -11.6323     XY      -0.0000     YY     -11.6323
        XZ      -0.0000     YZ      -0.0000     ZZ      -9.9466
    Octopole Moments (Debye-Ang^2)
       XXX      -0.0000    XXY      -0.0000    XYY      -0.0000
       YYY      -0.0000    XXZ      -0.0851    XYZ       0.0000
       YYZ      -0.0851    XZZ      -0.0000    YZZ      -0.0000
       ZZZ      -7.1872
    Hexadecapole Moments (Debye-Ang^3)
      XXXX     -11.1536   XXXY      -0.0000   XXYY      -3.7179
      XYYY      -0.0000   YYYY     -11.1536   XXXZ      -0.0000
      XXYZ      -0.0000   XYYZ      -0.0000   YYYZ      -0.0000
      XXZZ      -9.1240   XYZZ      -0.0000   YYZZ      -9.1240
      XZZZ      -0.0000   YZZZ      -0.0000   ZZZZ     -36.7040
 -----------------------------------------------------------------
 DrvMan is completing analytic gradient of the MP2 energy
 MP2 relaxed dipole moment
            1
    1   0.0000000
    2  -0.0000000
    3  -1.1371576
	Magnitude:	 1.137 au	 2.890 Debye
 MP2 energy read as -93.237360
 Full Analytical Gradient of MP2 Energy (in au.)
             1             2             3
    1   -0.00000000   -0.00000000    0.00000000
    2    0.00000000   -0.00000000   -0.00000000
    3   -0.00001078    0.00000942    0.00000137
 Gradient time:  CPU 0.00 s  wall 0.00 s
 Geometry Optimization Parameters
   NAtoms,    NIC,     NZ,  NCons,   NDum,   NFix, NCnnct, MaxDiis
        3       9       4       0       0       0       0       0


** GEOMETRY OPTIMIZATION IN DELOCALIZED INTERNAL COORDINATES **
   Searching for a Minimum

   Optimization Cycle:   1

                       Coordinates (Angstroms)
     ATOM                X               Y               Z
      1  C         0.0000000000    0.0000000000   -0.5086520000
      2  N         0.0000000000    0.0000000000    0.6610340000
      3  H         0.0000000000    0.0000000000   -1.5753260000
   Point Group: c*v   Number of degrees of freedom:     2


   Energy is    -93.237360178


 Attempting to Generate Delocalized Internal Coordinates
 GETINT wrote B to file, NVib is            2
 calling HSSCONV
 HCONV 3*NATOMS:            9
 wrote HINT to file
  writing hessian 

  2 Hessian modes will be used to form the next step
  Hessian Eigenvalues:
     0.376536    1.216590

 Minimum Search - Taking Simple RFO Step
 Searching for Lamda that Minimizes Along All modes
 Value Taken    Lamda =   0.00000000
 Step Taken.  Stepsize is  0.000009

                             Maximum     Tolerance    Cnvgd?
         Gradient           0.000008      0.000300     YES
         Displacement       0.000008      0.001200     YES
         Energy change     *********      0.000001      NO


                       Distance Matrix (Angstroms)
             C (  1)   N (  2)
   N (  2)  1.169686
   H (  3)  1.066674  2.236360

 Final energy is   -93.237360178424737     


 ******************************
 **  OPTIMIZATION CONVERGED  **
 ******************************

Z-matrix Print:
$molecule
0 1
C 
H  1 1.066674
N  1 1.169686 2 179.999999
$end

 Analysis of SCF Wavefunction

 --------------------------------------------------------------
                    Orbital Energies (a.u.)
 --------------------------------------------------------------

 Alpha MOs
 -- Occupied --
-15.603 -11.295  -1.229  -0.813  -0.581  -0.490  -0.490
 -- Virtual --
  0.149   0.174   0.174   0.298   0.575   0.575   0.592   0.745
  0.784   0.898   0.898   1.161   1.372   1.392   1.392   1.501
  1.501   2.069   2.069   2.152   2.382   2.382   2.729   2.927
  2.927   3.094   3.158   3.158   3.396   3.657   4.293   4.293
  4.928  25.399  37.132
 --------------------------------------------------------------

          Ground-State Mulliken Net Atomic Charges

     Atom                 Charge (a.u.)
  ----------------------------------------
      1 C                     0.031344
      2 N                    -0.214858
      3 H                     0.183514
  ----------------------------------------
  Sum of atomic charges =     0.000000

 -----------------------------------------------------------------
                    Cartesian Multipole Moments
 -----------------------------------------------------------------
    Charge (ESU x 10^10)
                 0.0000
    Dipole Moment (Debye)
         X       0.0000      Y      -0.0000      Z      -2.8904
       Tot       2.8904
    Quadrupole Moments (Debye-Ang)
        XX     -11.6323     XY      -0.0000     YY     -11.6323
        XZ      -0.0000     YZ      -0.0000     ZZ      -9.9466
    Octopole Moments (Debye-Ang^2)
       XXX      -0.0000    XXY      -0.0000    XYY      -0.0000
       YYY      -0.0000    XXZ      -0.0851    XYZ       0.0000
       YYZ      -0.0851    XZZ      -0.0000    YZZ      -0.0000
       ZZZ      -7.1872
    Hexadecapole Moments (Debye-Ang^3)
      XXXX     -11.1536   XXXY      -0.0000   XXYY      -3.7179
      XYYY      -0.0000   YYYY     -11.1536   XXXZ      -0.0000
      XXYZ      -0.0000   XYYZ      -0.0000   YYYZ      -0.0000
      XXZZ      -9.1240   XYZZ      -0.0000   YYZZ      -9.1240
      XZZZ      -0.0000   YZZZ      -0.0000   ZZZZ     -36.7040
 -----------------------------------------------------------------
Archival summary:
1\1\Deborahs-MacBook-Air.local\OPT\MP2\6-311G**\111\TueMay612:23:402014TueMay612:23:402014\0\\#,OPT,MP2,6-311G**,\\0,1\C\H,1,1.06667\N,1,1.16969,2,180\\HF=-92.8951612\MP2=-93.2373602\\@

 Total job time:  1.35s(wall), 1.32s(cpu) 
 Tue May  6 12:23:40 2014

        *************************************************************
        *                                                           *
        *  Thank you very much for using Q-Chem.  Have a nice day.  *
        *                                                           *
        *************************************************************


 
User input: 2 of 17 
 
/Users/Deb/Programs/trunk/build/qcprog.exe .hcn_hnc.inp.26844.qcin.2 /tmp/qchem26844/

                  Welcome to Q-Chem
     A Quantum Leap Into The Future Of Chemistry

 Y. Shao, L. Fusti-Molnar, Y. Jung, J. Kussmann, C. Ochsenfeld, S. T. Brown, 
 A. T. B. Gilbert, L. V. Slipchenko, S. V. Levchenko, D. P. O'Neill, 
 R. A. DiStasio Jr., R. C. Lochan, T. Wang, G. J. O. Beran, N. A. Besley, 
 J. M. Herbert, C. Y. Lin, T. Van Voorhis, S. H. Chien, A. Sodt, R. P. Steele, 
 V. A. Rassolov, P. E. Maslen, P. P. Korambath, R. D. Adamson, B. Austin, 
 J. Baker, E. F. C. Byrd, H. Dachsel, R. J. Doerksen, A. Dreuw, B. D. Dunietz, 
 A. D. Dutoi, T. R. Furlani, S. R. Gwaltney, A. Heyden, S. Hirata, C.-P. Hsu, 
 G. Kedziora, R. Z. Khaliullin, P. Klunzinger, A. M. Lee, M. S. Lee, W. Liang, 
 I. Lotan, N. Nair, B. Peters, E. I. Proynov, P. A. Pieniazek, Y. M. Rhee, 
 J. Ritchie, E. Rosta, C. D. Sherrill, A. C. Simmonett, J. E. Subotnik, 
 H. L. Woodcock III, W. Zhang, A. T. Bell, A. K. Chakraborty, D. M. Chipman, 
 F. J. Keil, A. Warshel, W. J. Hehre, H. F. Schaefer III, J. Kong, 
 A. I. Krylov, P. M. W. Gill, M. Head-Gordon

 Additional authors for Version 3.1: 
 Z. Gan, Y. Zhao, N. E. Schultz, D. Truhlar, E. Epifanovsky, M. Oana

 Additional authors for Version 3.2: 
 R. Baer, B. R. Brooks, D. Casanova, J.-D. Chai, C.-L. Cheng, C. Cramer, 
 D. Crittenden, A. Ghysels, G. Hawkins, E. G. Hohenstein, C. Kelley, 
 W. Kurlancheek, D. Liotard, E. Livshits, P. Manohar, A. Marenich, 
 D. Neuhauser, R. Olson, M. A. Rohrdanz, K. S. Thanthiriwatte, A. J. W. Thom, 
 V. Vanovschi, C. F. Williams, Q. Wu, Z.-Q. You

 Additional authors for Version 4.0: 
 A. Aspuru-Guzik, Y. Bernard, C. Chang, J. Deng, A. Dreuw, M. Diedenhofen, 
 R. G. Edgar, D. Ghosh, W. A. Goddard III, M. Goldey, L. D. Jacobson, 
 M. Gordon, B. Kaduk, I. Kaliman, K. Khistyaev, R. King, A. Klamt, 
 D. Kosenkov, T. Kus, D. Lambrecht, A. Landau, A. W. Lange, K. Lawler, F. Liu, 
 J. Liu, R. Olivares-Amaya, S. P. Mao, J. Parkhill, N. Russ, M. Schmidt, 
 N. Shenvi, D. Small, Y. C. Su, E. Sundstrom, L. Vogt, O. Vydrov, M. Watson, 
 M. Wormit, X. Xu, S. Yeganeh, I. Y. Zhang, D. Zuev

 Additional authors for Version 4.1: 
 X. Feng, M. W. D. Hanson-Heine, P. Horn, H. Ji, A. Laurent, R. Peverati, 
 N. Mardirossian, N. Sergueev, S. Sharada, P. Zimmerman

 Q-Chem, Version 4.1, Q-Chem, Inc., Pittsburgh, PA (2013).

 Parts of Q-Chem use Armadillo 4.100.2 (Dirt Cruiser).
 http://arma.sourceforge.net/

 MAC (Intel) OSX Version 4.1.2

 Q-chem begins on Tue May  6 12:23:40 2014  

Deborahs-MacBook-Air.local
Host: 0

     Scratch files written to /tmp/qchem26844//
 Apr1114 |Users|Deb|Programs|trunk|libmdc|qstr_info.C -1
Finally everything over in PARseQInput

--------------------------------------------------------------
User input:
--------------------------------------------------------------
$molecule
0 1
C
H 1 1.066674
N 1 1.169686 2 160.0
$end

$rem
JOBTYPE OPT
EXCHANGE HF
CORRELATION MP2
BASIS 6-311G**
SCF_GUESS READ
$end

$opt
CONSTRAINT
bend 3 1 2 160.0
ENDCONSTRAINT
$end
--------------------------------------------------------------
 ----------------------------------------------------------------
             Standard Nuclear Orientation (Angstroms)
    I     Atom           X                Y                Z
 ----------------------------------------------------------------
    1      C       0.5094587621    -0.0674773523     0.0000000000
    2      H       1.5380233932     0.2150969246    -0.0000000000
    3      N      -0.6563965665     0.0271095985    -0.0000000000
 ----------------------------------------------------------------
 Molecular Point Group                 Cs    NOp =  2
 Largest Abelian Subgroup              Cs    NOp =  2
 Nuclear Repulsion Energy =    23.6596729136 hartrees
 There are        7 alpha and        7 beta electrons
 Requested basis set is 6-311G(d,p)
 There are 14 shells and 42 basis functions

Total QAlloc Memory Limit   2000 MB
Mega-Array Size        61 MB
MEM_STATIC part        62 MB
 A cutoff of  1.0D-11 yielded    105 shell pairs
 There are       962 function pairs (      1059 Cartesian)
 Smallest overlap matrix eigenvalue = 5.69E-03

  Scale SEOQF with 1.000000e-01/1.000000e+00/1.000000e+00

 Standard Electronic Orientation quadrupole field applied
 Nucleus-field energy     =     0.0000000003 hartrees
 Guess MOs from SCF MO coefficient file
Reading MOs from coefficient file
Reading MOs from coefficient file
 A restricted Hartree-Fock SCF calculation will be
 performed using Pulay DIIS extrapolation
 SCF converges when DIIS error is below 1.0E-08
 ---------------------------------------
  Cycle       Energy         DIIS Error
 ---------------------------------------
    1     -50.7401164748      4.52E-01
    2     -79.2039768336      3.03E-01
    3     -87.7751814985      1.28E-01
    4     -90.5478060114      1.06E-01
    5     -92.6444211362      3.29E-02
    6     -92.8796398582      5.74E-03
    7     -92.8895439329      1.85E-03
    8     -92.8902229754      6.73E-04
    9     -92.8903432150      8.00E-05
   10     -92.8903475691      2.93E-05
   11     -92.8903486393      1.56E-05
   12     -92.8903490708      4.82E-06
   13     -92.8903490967      1.17E-06
   14     -92.8903490972      1.64E-07
   15     -92.8903490972      8.66E-08
   16     -92.8903490972      6.40E-08
   17     -92.8903490972      1.38E-08
   18     -92.8903490972      4.96E-09 Convergence criterion met
 ---------------------------------------
 SCF time:  CPU 0.49 s  wall 0.49 s
 SCF   energy in the final basis set = -92.8903490972
 Total energy in the final basis set = -92.8903490972

 Components of the MP2 correlation energy:
        aaaa  correlation energy =        -0.0410044175 au
        abab  correlation energy =        -0.2610157502 au
        bbbb  correlation energy =        -0.0410044175 au
        non-Brillouin singles    =        -0.0000000000 au

 Total  MP2   correlation energy =        -0.3430245853 au
        MP2         total energy =       -93.2333736826 au

  Entering Z-vector solver.
OV_DIM:  Setting MaxSz  = 245
OV_DIM:  Setting MaxSpc = 245
   1         0           1      0.000659    0.000659
   2         0           1      0.000164    0.000164
   3         0           1      0.000098    0.000098
   4         0           1      0.000050    0.000050
   5         0           1      0.000015    0.000015
   6         0           1      0.000003    0.000003
   7         1           0      0.000000    0.000000    Roots Converged
 Analysis of SCF Wavefunction

 --------------------------------------------------------------
             Orbital Energies (a.u.) and Symmetries
 --------------------------------------------------------------

 Alpha MOs, Restricted
 -- Occupied --                  
-15.604 -11.294  -1.231  -0.808  -0.582  -0.491  -0.490
  1 A'    2 A'    3 A'    4 A'    5 A'    1 A"    6 A'                         
 -- Virtual --                   
  0.136   0.172   0.174   0.314   0.574   0.576   0.586   0.741
  7 A'    8 A'    2 A"    9 A'   10 A'    3 A"   11 A'   12 A'                 
  0.789   0.897   0.907   1.097   1.305   1.375   1.473   1.526
 13 A'    4 A"   14 A'   15 A'   16 A'    5 A"   17 A'    6 A"                 
  1.567   1.937   2.058   2.249   2.395   2.397   2.701   2.849
 18 A'   19 A'    7 A"   20 A'    8 A"   21 A'   22 A'   23 A'                 
  2.916   3.070   3.145   3.189   3.358   3.708   4.281   4.347
  9 A"   24 A'   10 A"   25 A'   26 A'   27 A'   11 A"   28 A'                 
  4.888  25.324  37.086
 29 A'   30 A'   31 A'                                                         

 Beta MOs, Restricted
 -- Occupied --                  
-15.604 -11.294  -1.231  -0.808  -0.582  -0.491  -0.490
  1 A'    2 A'    3 A'    4 A'    5 A'    1 A"    6 A'                         
 -- Virtual --                   
  0.136   0.172   0.174   0.314   0.574   0.576   0.586   0.741
  7 A'    8 A'    2 A"    9 A'   10 A'    3 A"   11 A'   12 A'                 
  0.789   0.897   0.907   1.097   1.305   1.375   1.473   1.526
 13 A'    4 A"   14 A'   15 A'   16 A'    5 A"   17 A'    6 A"                 
  1.567   1.937   2.058   2.249   2.395   2.397   2.701   2.849
 18 A'   19 A'    7 A"   20 A'    8 A"   21 A'   22 A'   23 A'                 
  2.916   3.070   3.145   3.189   3.358   3.708   4.281   4.347
  9 A"   24 A'   10 A"   25 A'   26 A'   27 A'   11 A"   28 A'                 
  4.888  25.324  37.086
 29 A'   30 A'   31 A'                                                         
 --------------------------------------------------------------

          Ground-State Mulliken Net Atomic Charges

     Atom                 Charge (a.u.)
  ----------------------------------------
      1 C                     0.016546
      2 H                     0.184876
      3 N                    -0.201422
  ----------------------------------------
  Sum of atomic charges =    -0.000000

 -----------------------------------------------------------------
                    Cartesian Multipole Moments
 -----------------------------------------------------------------
    Charge (ESU x 10^10)
                 0.0000
    Dipole Moment (Debye)
         X       2.8023      Y       0.2124      Z      -0.0000
       Tot       2.8104
    Quadrupole Moments (Debye-Ang)
        XX     -10.1226     XY       0.4468     YY     -11.5346
        XZ      -0.0000     YZ       0.0000     ZZ     -11.6443
    Octopole Moments (Debye-Ang^2)
       XXX       6.6474    XXY       0.8633    XYY       0.1905
       YYY       0.4305    XXZ      -0.0000    XYZ       0.0000
       YYZ       0.0000    XZZ       0.0447    YZZ       0.1370
       ZZZ       0.0000
    Hexadecapole Moments (Debye-Ang^3)
      XXXX     -37.2004   XXXY       1.8265   XXYY      -8.8536
      XYYY       0.3359   YYYY     -11.4626   XXXZ      -0.0000
      XXYZ       0.0000   XYYZ      -0.0000   YYYZ       0.0000
      XXZZ      -9.0485   XYZZ       0.0993   YYZZ      -3.7745
      XZZZ      -0.0000   YZZZ       0.0000   ZZZZ     -11.1781
 -----------------------------------------------------------------
 DrvMan is completing analytic gradient of the MP2 energy
 MP2 relaxed dipole moment
            1
    1   1.1025291
    2   0.0835693
    3  -0.0000000
	Magnitude:	 1.106 au	 2.810 Debye
 MP2 energy read as -93.233374
 Full Analytical Gradient of MP2 Energy (in au.)
             1             2             3
    1   -0.00129824   -0.00434569    0.00564393
    2   -0.02028117    0.01046054    0.00982064
    3    0.00000000   -0.00000000   -0.00000000
 Gradient time:  CPU 0.00 s  wall 0.00 s
 Geometry Optimization Parameters
   NAtoms,    NIC,     NZ,  NCons,   NDum,   NFix, NCnnct, MaxDiis
        3       9       3       1       0       0       0       0


** CONSTRAINED OPTIMIZATION IN DELOCALIZED INTERNAL COORDINATES **
   Searching for a Minimum

   Optimization Cycle:   1

                       Coordinates (Angstroms)
     ATOM                X               Y               Z
      1  C         0.5094587621   -0.0674773523    0.0000000000
      2  H         1.5380233932    0.2150969246    0.0000000000
      3  N        -0.6563965665    0.0271095985    0.0000000000
   Point Group: cs    Number of degrees of freedom:     3


   Energy is    -93.233373683

              Constraints and their Current Values
                                        Value     Constraint
   Angle:           3   1   2          160.000      160.000

 Attempting to Generate Delocalized Internal Coordinates
 GETINT wrote B to file, NVib is            3
 GETINT wrote B to file, NVib is            3
**WARNING** Problems with Internal Coordinates
  Switching to Cartesian Coordinates

   Using Lagrange Multiplier Algorithm


 Translations and Rotations Projected Out of Hessian

  4 Hessian modes will be used to form the next step
  Hessian Eigenvalues:
    -0.754348    1.000000    1.000000    1.754348

 Minimum Search - Taking P-RFO Step
 Searching for Lamda that Maximizes Along the Constraint modes Only
 Value Taken    Lamda =   0.00025208
 Searching for Lamda that Minimizes Along All other modes
 Value Taken    Lamda =  -0.00028912
 Step Taken.  Stepsize is  0.022688

                             Maximum     Tolerance    Cnvgd?
         Gradient           0.020281      0.000300      NO
         Displacement       0.021858      0.001200      NO
         Energy change     *********      0.000001      NO

 ----------------------------------------------------------------
             Standard Nuclear Orientation (Angstroms)
    I     Atom           X                Y                Z
 ----------------------------------------------------------------
    1      C       0.5112425466    -0.0674961247     0.0000000000
    2      H       1.5388022374     0.2150967314     0.0000000000
    3      N      -0.6589591953     0.0271285641     0.0000000000
 ----------------------------------------------------------------
 Molecular Point Group                 Cs    NOp =  2
 Largest Abelian Subgroup              Cs    NOp =  2
 Nuclear Repulsion Energy =    23.5896631997 hartrees
 There are        7 alpha and        7 beta electrons
 Applying Cartesian multipole field
    Component          Value
    ---------          -----
     (2,0,0)        1.00000E-11
     (0,2,0)        2.00000E-10
     (0,0,2)       -3.00000E-10
 Nucleus-field energy     =     0.0000000003 hartrees
 Requested basis set is 6-311G(d,p)
 There are 14 shells and 42 basis functions
 A cutoff of  1.0D-11 yielded    105 shell pairs
 There are       962 function pairs (      1059 Cartesian)
 Smallest overlap matrix eigenvalue = 5.75E-03
 Guess MOs from SCF MO coefficient file
Reading MOs from coefficient file
Reading MOs from coefficient file
 A restricted Hartree-Fock SCF calculation will be
 performed using Pulay DIIS extrapolation
 SCF converges when DIIS error is below 1.0E-08
Geometry optimization detected.  Setting ReadMinima to 0
Setting SaveMinima to 0
 ---------------------------------------
  Cycle       Energy         DIIS Error
 ---------------------------------------
    1     -92.8838900160      8.18E-04
    2     -92.8894452275      1.15E-04
    3     -92.8894482812      5.19E-05
    4     -92.8894487329      1.81E-05
    5     -92.8894487999      5.83E-06
    6     -92.8894488176      1.97E-06
    7     -92.8894488202      5.11E-07
    8     -92.8894488205      1.78E-07
    9     -92.8894488205      7.74E-08
   10     -92.8894488205      2.35E-08
   11     -92.8894488205      1.47E-08
   12     -92.8894488205      1.16E-08
   13     -92.8894488205      3.44E-09 Convergence criterion met
 ---------------------------------------
 SCF time:  CPU 0.35 s  wall 0.35 s
 SCF   energy in the final basis set = -92.8894488205
 Total energy in the final basis set = -92.8894488205

 Components of the MP2 correlation energy:
        aaaa  correlation energy =        -0.0411339644 au
        abab  correlation energy =        -0.2616567062 au
        bbbb  correlation energy =        -0.0411339644 au
        non-Brillouin singles    =        -0.0000000000 au

 Total  MP2   correlation energy =        -0.3439246349 au
        MP2         total energy =       -93.2333734554 au

  Entering Z-vector solver.
OV_DIM:  Setting MaxSz  = 245
OV_DIM:  Setting MaxSpc = 245
   1         0           1      0.000667    0.000667
   2         0           1      0.000168    0.000168
   3         0           1      0.000103    0.000103
   4         0           1      0.000053    0.000053
   5         0           1      0.000016    0.000016
   6         0           1      0.000003    0.000003
   7         1           0      0.000000    0.000000    Roots Converged
 Analysis of SCF Wavefunction

 --------------------------------------------------------------
             Orbital Energies (a.u.) and Symmetries
 --------------------------------------------------------------

 Alpha MOs, Restricted
 -- Occupied --                  
-15.606 -11.295  -1.229  -0.809  -0.582  -0.490  -0.489
  1 A'    2 A'    3 A'    4 A'    5 A'    1 A"    6 A'                         
 -- Virtual --                   
  0.136   0.171   0.172   0.314   0.574   0.576   0.586   0.740
  7 A'    8 A'    2 A"    9 A'   10 A'    3 A"   11 A'   12 A'                 
  0.789   0.896   0.906   1.091   1.304   1.374   1.473   1.525
 13 A'    4 A"   14 A'   15 A'   16 A'    5 A"   17 A'    6 A"                 
  1.565   1.935   2.057   2.246   2.393   2.395   2.700   2.846
 18 A'   19 A'    7 A"   20 A'    8 A"   21 A'   22 A'   23 A'                 
  2.913   3.069   3.143   3.185   3.360   3.704   4.278   4.343
  9 A"   24 A'   10 A"   25 A'   26 A'   27 A'   11 A"   28 A'                 
  4.883  25.316  37.076
 29 A'   30 A'   31 A'                                                         

 Beta MOs, Restricted
 -- Occupied --                  
-15.606 -11.295  -1.229  -0.809  -0.582  -0.490  -0.489
  1 A'    2 A'    3 A'    4 A'    5 A'    1 A"    6 A'                         
 -- Virtual --                   
  0.136   0.171   0.172   0.314   0.574   0.576   0.586   0.740
  7 A'    8 A'    2 A"    9 A'   10 A'    3 A"   11 A'   12 A'                 
  0.789   0.896   0.906   1.091   1.304   1.374   1.473   1.525
 13 A'    4 A"   14 A'   15 A'   16 A'    5 A"   17 A'    6 A"                 
  1.565   1.935   2.057   2.246   2.393   2.395   2.700   2.846
 18 A'   19 A'    7 A"   20 A'    8 A"   21 A'   22 A'   23 A'                 
  2.913   3.069   3.143   3.185   3.360   3.704   4.278   4.343
  9 A"   24 A'   10 A"   25 A'   26 A'   27 A'   11 A"   28 A'                 
  4.883  25.316  37.076
 29 A'   30 A'   31 A'                                                         
 --------------------------------------------------------------

          Ground-State Mulliken Net Atomic Charges

     Atom                 Charge (a.u.)
  ----------------------------------------
      1 C                     0.015624
      2 H                     0.184791
      3 N                    -0.200414
  ----------------------------------------
  Sum of atomic charges =    -0.000000

 -----------------------------------------------------------------
                    Cartesian Multipole Moments
 -----------------------------------------------------------------
    Charge (ESU x 10^10)
                -0.0000
    Dipole Moment (Debye)
         X       2.7982      Y       0.2134      Z       0.0000
       Tot       2.8063
    Quadrupole Moments (Debye-Ang)
        XX     -10.1260     XY       0.4447     YY     -11.5454
        XZ       0.0000     YZ       0.0000     ZZ     -11.6558
    Octopole Moments (Debye-Ang^2)
       XXX       6.6601    XXY       0.8651    XYY       0.1931
       YYY       0.4329    XXZ       0.0000    XYZ       0.0000
       YYZ       0.0000    XZZ       0.0464    YZZ       0.1379
       ZZZ       0.0000
    Hexadecapole Moments (Debye-Ang^3)
      XXXX     -37.3786   XXXY       1.8259   XXYY      -8.8870
      XYYY       0.3384   YYYY     -11.4825   XXXZ       0.0000
      XXYZ       0.0000   XYYZ       0.0000   YYYZ       0.0000
      XXZZ      -9.0821   XYZZ       0.1001   YYZZ      -3.7815
      XZZZ       0.0000   YZZZ       0.0000   ZZZZ     -11.2001
 -----------------------------------------------------------------
 DrvMan is completing analytic gradient of the MP2 energy
 MP2 relaxed dipole moment
            1
    1   1.1008854
    2   0.0839737
    3   0.0000000
	Magnitude:	 1.104 au	 2.806 Debye
 MP2 energy read as -93.233373
 Full Analytical Gradient of MP2 Energy (in au.)
             1             2             3
    1    0.00833266   -0.00518045   -0.00315221
    2   -0.02054788    0.01014098    0.01040690
    3    0.00000000   -0.00000000    0.00000000
 Gradient time:  CPU 0.00 s  wall 0.00 s
 Geometry Optimization Parameters
   NAtoms,    NIC,     NZ,  NCons,   NDum,   NFix, NCnnct, MaxDiis
        3       9       3       1       0       0       0       0

 Cartesian Hessian Update
 Hessian Updated using BFGS Update


** CONSTRAINED OPTIMIZATION IN CARTESIAN COORDINATES **
   Searching for a Minimum

   Optimization Cycle:   2

                       Coordinates (Angstroms)
     ATOM                X               Y               Z
      1  C         0.5112425466   -0.0674961247    0.0000000000
      2  H         1.5388022374    0.2150967314    0.0000000000
      3  N        -0.6589591953    0.0271285641    0.0000000000
   Point Group: cs    Number of degrees of freedom:     3


   Energy is    -93.233373455

              Constraints and their Current Values
                                        Value     Constraint
   Angle:           3   1   2          160.000      160.000

   Using Lagrange Multiplier Algorithm


 Translations and Rotations Projected Out of Hessian

  4 Hessian modes will be used to form the next step
  Hessian Eigenvalues:
    -0.753080    0.793031    1.736033    2.542083

 Minimum Search - Taking P-RFO Step
 Searching for Lamda that Maximizes Along the Constraint modes Only
 Value Taken    Lamda =   0.00000014
 Searching for Lamda that Minimizes Along All other modes
 Value Taken    Lamda =  -0.00002418
 Step Taken.  Stepsize is  0.003199

                             Maximum     Tolerance    Cnvgd?
         Gradient           0.006249      0.000300      NO
         Displacement       0.002560      0.001200      NO
         Energy change      0.000000      0.000001     YES

 ----------------------------------------------------------------
             Standard Nuclear Orientation (Angstroms)
    I     Atom           X                Y                Z
 ----------------------------------------------------------------
    1      C       0.5098876420    -0.0676356676     0.0000000000
    2      H       1.5395018661     0.2152892039     0.0000000000
    3      N      -0.6583039194     0.0270756344     0.0000000000
 ----------------------------------------------------------------
 Molecular Point Group                 Cs    NOp =  2
 Largest Abelian Subgroup              Cs    NOp =  2
 Nuclear Repulsion Energy =    23.6160910792 hartrees
 There are        7 alpha and        7 beta electrons
 Applying Cartesian multipole field
    Component          Value
    ---------          -----
     (2,0,0)        1.00000E-11
     (0,2,0)        2.00000E-10
     (0,0,2)       -3.00000E-10
 Nucleus-field energy     =     0.0000000003 hartrees
 Requested basis set is 6-311G(d,p)
 There are 14 shells and 42 basis functions
 A cutoff of  1.0D-11 yielded    105 shell pairs
 There are       962 function pairs (      1059 Cartesian)
 Smallest overlap matrix eigenvalue = 5.73E-03
 Guess MOs from SCF MO coefficient file
Reading MOs from coefficient file
Reading MOs from coefficient file
 A restricted Hartree-Fock SCF calculation will be
 performed using Pulay DIIS extrapolation
 SCF converges when DIIS error is below 1.0E-08
Geometry optimization detected.  Setting ReadMinima to 0
Setting SaveMinima to 0
 ---------------------------------------
  Cycle       Energy         DIIS Error
 ---------------------------------------
    1     -92.8916187841      4.31E-04
    2     -92.8898579732      5.89E-05
    3     -92.8898585979      3.83E-05
    4     -92.8898588542      9.69E-06
    5     -92.8898588748      2.55E-06
    6     -92.8898588790      1.00E-06
    7     -92.8898588797      2.72E-07
    8     -92.8898588798      8.89E-08
    9     -92.8898588798      3.87E-08
   10     -92.8898588798      1.17E-08
   11     -92.8898588798      7.51E-09 Convergence criterion met
 ---------------------------------------
 SCF time:  CPU 0.30 s  wall 0.30 s
 SCF   energy in the final basis set = -92.8898588798
 Total energy in the final basis set = -92.8898588798

 Components of the MP2 correlation energy:
        aaaa  correlation energy =        -0.0410749651 au
        abab  correlation energy =        -0.2613777593 au
        bbbb  correlation energy =        -0.0410749651 au
        non-Brillouin singles    =        -0.0000000000 au

 Total  MP2   correlation energy =        -0.3435276895 au
        MP2         total energy =       -93.2333865693 au

  Entering Z-vector solver.
OV_DIM:  Setting MaxSz  = 245
OV_DIM:  Setting MaxSpc = 245
   1         0           1      0.000664    0.000664
   2         0           1      0.000167    0.000167
   3         0           1      0.000101    0.000101
   4         0           1      0.000051    0.000051
   5         0           1      0.000016    0.000016
   6         0           1      0.000003    0.000003
   7         1           0      0.000000    0.000000    Roots Converged
 Analysis of SCF Wavefunction

 --------------------------------------------------------------
             Orbital Energies (a.u.) and Symmetries
 --------------------------------------------------------------

 Alpha MOs, Restricted
 -- Occupied --                  
-15.605 -11.295  -1.230  -0.808  -0.582  -0.490  -0.489
  1 A'    2 A'    3 A'    4 A'    5 A'    1 A"    6 A'                         
 -- Virtual --                   
  0.136   0.172   0.173   0.314   0.574   0.576   0.586   0.740
  7 A'    8 A'    2 A"    9 A'   10 A'    3 A"   11 A'   12 A'                 
  0.789   0.897   0.907   1.094   1.305   1.374   1.473   1.526
 13 A'    4 A"   14 A'   15 A'   16 A'    5 A"   17 A'    6 A"                 
  1.566   1.935   2.056   2.247   2.394   2.396   2.700   2.846
 18 A'   19 A'    7 A"   20 A'    8 A"   21 A'   22 A'   23 A'                 
  2.914   3.069   3.143   3.186   3.358   3.705   4.280   4.345
  9 A"   24 A'   10 A"   25 A'   26 A'   27 A'   11 A"   28 A'                 
  4.885  25.317  37.080
 29 A'   30 A'   31 A'                                                         

 Beta MOs, Restricted
 -- Occupied --                  
-15.605 -11.295  -1.230  -0.808  -0.582  -0.490  -0.489
  1 A'    2 A'    3 A'    4 A'    5 A'    1 A"    6 A'                         
 -- Virtual --                   
  0.136   0.172   0.173   0.314   0.574   0.576   0.586   0.740
  7 A'    8 A'    2 A"    9 A'   10 A'    3 A"   11 A'   12 A'                 
  0.789   0.897   0.907   1.094   1.305   1.374   1.473   1.526
 13 A'    4 A"   14 A'   15 A'   16 A'    5 A"   17 A'    6 A"                 
  1.566   1.935   2.056   2.247   2.394   2.396   2.700   2.846
 18 A'   19 A'    7 A"   20 A'    8 A"   21 A'   22 A'   23 A'                 
  2.914   3.069   3.143   3.186   3.358   3.705   4.280   4.345
  9 A"   24 A'   10 A"   25 A'   26 A'   27 A'   11 A"   28 A'                 
  4.885  25.317  37.080
 29 A'   30 A'   31 A'                                                         
 --------------------------------------------------------------

          Ground-State Mulliken Net Atomic Charges

     Atom                 Charge (a.u.)
  ----------------------------------------
      1 C                     0.015721
      2 H                     0.185170
      3 N                    -0.200892
  ----------------------------------------
  Sum of atomic charges =     0.000000

 -----------------------------------------------------------------
                    Cartesian Multipole Moments
 -----------------------------------------------------------------
    Charge (ESU x 10^10)
                 0.0000
    Dipole Moment (Debye)
         X       2.8020      Y       0.2134      Z      -0.0000
       Tot       2.8101
    Quadrupole Moments (Debye-Ang)
        XX     -10.1223     XY       0.4468     YY     -11.5423
        XZ       0.0000     YZ      -0.0000     ZZ     -11.6526
    Octopole Moments (Debye-Ang^2)
       XXX       6.6792    XXY       0.8678    XYY       0.1952
       YYY       0.4340    XXZ      -0.0000    XYZ       0.0000
       YYZ      -0.0000    XZZ       0.0484    YZZ       0.1382
       ZZZ      -0.0000
    Hexadecapole Moments (Debye-Ang^3)
      XXXX     -37.3034   XXXY       1.8309   XXYY      -8.8776
      XYYY       0.3362   YYYY     -11.4775   XXXZ       0.0000
      XXYZ      -0.0000   XYYZ       0.0000   YYYZ      -0.0000
      XXZZ      -9.0734   XYZZ       0.0993   YYZZ      -3.7795
      XZZZ       0.0000   YZZZ      -0.0000   ZZZZ     -11.1932
 -----------------------------------------------------------------
 DrvMan is completing analytic gradient of the MP2 energy
 MP2 relaxed dipole moment
            1
    1   1.1023812
    2   0.0839472
    3  -0.0000000
	Magnitude:	 1.106 au	 2.810 Debye
 MP2 energy read as -93.233387
 Full Analytical Gradient of MP2 Energy (in au.)
             1             2             3
    1    0.00264355   -0.00355676    0.00091320
    2   -0.02072395    0.01059874    0.01012521
    3   -0.00000000    0.00000000   -0.00000000
 Gradient time:  CPU 0.00 s  wall 0.00 s
 Geometry Optimization Parameters
   NAtoms,    NIC,     NZ,  NCons,   NDum,   NFix, NCnnct, MaxDiis
        3       9       3       1       0       0       0       0

 Cartesian Hessian Update
 Hessian Updated using BFGS Update


** CONSTRAINED OPTIMIZATION IN CARTESIAN COORDINATES **
   Searching for a Minimum

   Optimization Cycle:   3

                       Coordinates (Angstroms)
     ATOM                X               Y               Z
      1  C         0.5098876420   -0.0676356676    0.0000000000
      2  H         1.5395018661    0.2152892039    0.0000000000
      3  N        -0.6583039194    0.0270756344    0.0000000000
   Point Group: cs    Number of degrees of freedom:     3


   Energy is    -93.233386569

              Constraints and their Current Values
                                        Value     Constraint
   Angle:           3   1   2          160.000      160.000

   Using Lagrange Multiplier Algorithm


 Translations and Rotations Projected Out of Hessian

  4 Hessian modes will be used to form the next step
  Hessian Eigenvalues:
    -0.753144    0.748693    1.742091    2.457826

 Minimum Search - Taking P-RFO Step
 Searching for Lamda that Maximizes Along the Constraint modes Only
 Value Taken    Lamda =   0.00000001
 Searching for Lamda that Minimizes Along All other modes
 Value Taken    Lamda =  -0.00000075
 Step Taken.  Stepsize is  0.000969

                             Maximum     Tolerance    Cnvgd?
         Gradient           0.000630      0.000300      NO
         Displacement       0.000768      0.001200     YES
         Energy change     -0.000013      0.000001      NO

 ----------------------------------------------------------------
             Standard Nuclear Orientation (Angstroms)
    I     Atom           X                Y                Z
 ----------------------------------------------------------------
    1      C       0.5096780903    -0.0676922714     0.0000000000
    2      H       1.5399085248     0.2153631457     0.0000000000
    3      N      -0.6585010264     0.0270582964     0.0000000000
 ----------------------------------------------------------------
 Molecular Point Group                 Cs    NOp =  2
 Largest Abelian Subgroup              Cs    NOp =  2
 Nuclear Repulsion Energy =    23.6140266931 hartrees
 There are        7 alpha and        7 beta electrons
 Applying Cartesian multipole field
    Component          Value
    ---------          -----
     (2,0,0)        1.00000E-11
     (0,2,0)        2.00000E-10
     (0,0,2)       -3.00000E-10
 Nucleus-field energy     =     0.0000000003 hartrees
 Requested basis set is 6-311G(d,p)
 There are 14 shells and 42 basis functions
 A cutoff of  1.0D-11 yielded    105 shell pairs
 There are       962 function pairs (      1059 Cartesian)
 Smallest overlap matrix eigenvalue = 5.73E-03
 Guess MOs from SCF MO coefficient file
Reading MOs from coefficient file
Reading MOs from coefficient file
 A restricted Hartree-Fock SCF calculation will be
 performed using Pulay DIIS extrapolation
 SCF converges when DIIS error is below 1.0E-08
Geometry optimization detected.  Setting ReadMinima to 0
Setting SaveMinima to 0
 ---------------------------------------
  Cycle       Energy         DIIS Error
 ---------------------------------------
    1     -92.8895542261      4.57E-05
    2     -92.8898541281      8.25E-06
    3     -92.8898541363      7.14E-06
    4     -92.8898541456      5.99E-07
    5     -92.8898541457      1.65E-07
    6     -92.8898541457      5.79E-08
    7     -92.8898541457      2.22E-08
    8     -92.8898541457      5.51E-09 Convergence criterion met
 ---------------------------------------
 SCF time:  CPU 0.23 s  wall 0.23 s
 SCF   energy in the final basis set = -92.8898541457
 Total energy in the final basis set = -92.8898541457

 Components of the MP2 correlation energy:
        aaaa  correlation energy =        -0.0410750030 au
        abab  correlation energy =        -0.2613828848 au
        bbbb  correlation energy =        -0.0410750030 au
        non-Brillouin singles    =        -0.0000000000 au

 Total  MP2   correlation energy =        -0.3435328908 au
        MP2         total energy =       -93.2333870365 au

  Entering Z-vector solver.
OV_DIM:  Setting MaxSz  = 245
OV_DIM:  Setting MaxSpc = 245
   1         0           1      0.000665    0.000665
   2         0           1      0.000167    0.000167
   3         0           1      0.000101    0.000101
   4         0           1      0.000051    0.000051
   5         0           1      0.000016    0.000016
   6         0           1      0.000003    0.000003
   7         1           0      0.000000    0.000000    Roots Converged
 Analysis of SCF Wavefunction

 --------------------------------------------------------------
             Orbital Energies (a.u.) and Symmetries
 --------------------------------------------------------------

 Alpha MOs, Restricted
 -- Occupied --                  
-15.605 -11.295  -1.230  -0.808  -0.582  -0.490  -0.489
  1 A'    2 A'    3 A'    4 A'    5 A'    1 A"    6 A'                         
 -- Virtual --                   
  0.136   0.172   0.173   0.314   0.574   0.576   0.586   0.740
  7 A'    8 A'    2 A"    9 A'   10 A'    3 A"   11 A'   12 A'                 
  0.788   0.897   0.907   1.094   1.305   1.374   1.473   1.526
 13 A'    4 A"   14 A'   15 A'   16 A'    5 A"   17 A'    6 A"                 
  1.566   1.935   2.056   2.247   2.394   2.396   2.700   2.845
 18 A'   19 A'    7 A"   20 A'    8 A"   21 A'   22 A'   23 A'                 
  2.913   3.069   3.143   3.186   3.357   3.705   4.280   4.345
  9 A"   24 A'   10 A"   25 A'   26 A'   27 A'   11 A"   28 A'                 
  4.885  25.316  37.080
 29 A'   30 A'   31 A'                                                         

 Beta MOs, Restricted
 -- Occupied --                  
-15.605 -11.295  -1.230  -0.808  -0.582  -0.490  -0.489
  1 A'    2 A'    3 A'    4 A'    5 A'    1 A"    6 A'                         
 -- Virtual --                   
  0.136   0.172   0.173   0.314   0.574   0.576   0.586   0.740
  7 A'    8 A'    2 A"    9 A'   10 A'    3 A"   11 A'   12 A'                 
  0.788   0.897   0.907   1.094   1.305   1.374   1.473   1.526
 13 A'    4 A"   14 A'   15 A'   16 A'    5 A"   17 A'    6 A"                 
  1.566   1.935   2.056   2.247   2.394   2.396   2.700   2.845
 18 A'   19 A'    7 A"   20 A'    8 A"   21 A'   22 A'   23 A'                 
  2.913   3.069   3.143   3.186   3.357   3.705   4.280   4.345
  9 A"   24 A'   10 A"   25 A'   26 A'   27 A'   11 A"   28 A'                 
  4.885  25.316  37.080
 29 A'   30 A'   31 A'                                                         
 --------------------------------------------------------------

          Ground-State Mulliken Net Atomic Charges

     Atom                 Charge (a.u.)
  ----------------------------------------
      1 C                     0.015599
      2 H                     0.185301
      3 N                    -0.200900
  ----------------------------------------
  Sum of atomic charges =     0.000000

 -----------------------------------------------------------------
                    Cartesian Multipole Moments
 -----------------------------------------------------------------
    Charge (ESU x 10^10)
                 0.0000
    Dipole Moment (Debye)
         X       2.8027      Y       0.2135      Z       0.0000
       Tot       2.8108
    Quadrupole Moments (Debye-Ang)
        XX     -10.1215     XY       0.4472     YY     -11.5429
        XZ      -0.0000     YZ      -0.0000     ZZ     -11.6533
    Octopole Moments (Debye-Ang^2)
       XXX       6.6888    XXY       0.8692    XYY       0.1964
       YYY       0.4348    XXZ       0.0000    XYZ       0.0000
       YYZ       0.0000    XZZ       0.0495    YZZ       0.1385
       ZZZ       0.0000
    Hexadecapole Moments (Debye-Ang^3)
      XXXX     -37.3056   XXXY       1.8327   XXYY      -8.8799
      XYYY       0.3357   YYYY     -11.4791   XXXZ       0.0000
      XXYZ      -0.0000   XYYZ      -0.0000   YYYZ      -0.0000
      XXZZ      -9.0759   XYZZ       0.0992   YYZZ      -3.7800
      XZZZ      -0.0000   YZZZ      -0.0000   ZZZZ     -11.1944
 -----------------------------------------------------------------
 DrvMan is completing analytic gradient of the MP2 energy
 MP2 relaxed dipole moment
            1
    1   1.1026686
    2   0.0840076
    3   0.0000000
	Magnitude:	 1.106 au	 2.811 Debye
 MP2 energy read as -93.233387
 Full Analytical Gradient of MP2 Energy (in au.)
             1             2             3
    1    0.00213005   -0.00308019    0.00095014
    2   -0.02083656    0.01071827    0.01011829
    3    0.00000000    0.00000000   -0.00000000
 Gradient time:  CPU 0.00 s  wall 0.00 s
 Geometry Optimization Parameters
   NAtoms,    NIC,     NZ,  NCons,   NDum,   NFix, NCnnct, MaxDiis
        3       9       3       1       0       0       0       0

 Cartesian Hessian Update
 Hessian Updated using BFGS Update


** CONSTRAINED OPTIMIZATION IN CARTESIAN COORDINATES **
   Searching for a Minimum

   Optimization Cycle:   4

                       Coordinates (Angstroms)
     ATOM                X               Y               Z
      1  C         0.5096780903   -0.0676922714    0.0000000000
      2  H         1.5399085248    0.2153631457    0.0000000000
      3  N        -0.6585010264    0.0270582964    0.0000000000
   Point Group: cs    Number of degrees of freedom:     3


   Energy is    -93.233387036

              Constraints and their Current Values
                                        Value     Constraint
   Angle:           3   1   2          160.000      160.000

   Using Lagrange Multiplier Algorithm


 Translations and Rotations Projected Out of Hessian

  4 Hessian modes will be used to form the next step
  Hessian Eigenvalues:
    -0.751790    0.554919    1.752235    2.616197

 Minimum Search - Taking P-RFO Step
 Searching for Lamda that Maximizes Along the Constraint modes Only
 Value Taken    Lamda =   0.00000000
 Searching for Lamda that Minimizes Along All other modes
 Value Taken    Lamda =  -0.00000006
 Step Taken.  Stepsize is  0.000323

                             Maximum     Tolerance    Cnvgd?
         Gradient           0.000137      0.000300     YES
         Displacement       0.000246      0.001200     YES
         Energy change     -0.000000      0.000001     YES


                       Distance Matrix (Angstroms)
             C (  1)   H (  2)
   H (  2)  1.068408
   N (  3)  1.172015  2.206459

 Final energy is   -93.233387036498030     


 ******************************
 **  OPTIMIZATION CONVERGED  **
 ******************************

Z-matrix Print:
$molecule
0 1
C 
H  1 1.068408
N  1 1.172015 2 159.999999
$end

 Analysis of SCF Wavefunction

 --------------------------------------------------------------
             Orbital Energies (a.u.) and Symmetries
 --------------------------------------------------------------

 Alpha MOs, Restricted
 -- Occupied --                  
-15.605 -11.295  -1.230  -0.808  -0.582  -0.490  -0.489
  1 A'    2 A'    3 A'    4 A'    5 A'    1 A"    6 A'                         
 -- Virtual --                   
  0.136   0.172   0.173   0.314   0.574   0.576   0.586   0.740
  7 A'    8 A'    2 A"    9 A'   10 A'    3 A"   11 A'   12 A'                 
  0.788   0.897   0.907   1.094   1.305   1.374   1.473   1.526
 13 A'    4 A"   14 A'   15 A'   16 A'    5 A"   17 A'    6 A"                 
  1.566   1.935   2.056   2.247   2.394   2.396   2.700   2.845
 18 A'   19 A'    7 A"   20 A'    8 A"   21 A'   22 A'   23 A'                 
  2.913   3.069   3.143   3.186   3.357   3.705   4.280   4.345
  9 A"   24 A'   10 A"   25 A'   26 A'   27 A'   11 A"   28 A'                 
  4.885  25.316  37.080
 29 A'   30 A'   31 A'                                                         

 Beta MOs, Restricted
 -- Occupied --                  
-15.605 -11.295  -1.230  -0.808  -0.582  -0.490  -0.489
  1 A'    2 A'    3 A'    4 A'    5 A'    1 A"    6 A'                         
 -- Virtual --                   
  0.136   0.172   0.173   0.314   0.574   0.576   0.586   0.740
  7 A'    8 A'    2 A"    9 A'   10 A'    3 A"   11 A'   12 A'                 
  0.788   0.897   0.907   1.094   1.305   1.374   1.473   1.526
 13 A'    4 A"   14 A'   15 A'   16 A'    5 A"   17 A'    6 A"                 
  1.566   1.935   2.056   2.247   2.394   2.396   2.700   2.845
 18 A'   19 A'    7 A"   20 A'    8 A"   21 A'   22 A'   23 A'                 
  2.913   3.069   3.143   3.186   3.357   3.705   4.280   4.345
  9 A"   24 A'   10 A"   25 A'   26 A'   27 A'   11 A"   28 A'                 
  4.885  25.316  37.080
 29 A'   30 A'   31 A'                                                         
 --------------------------------------------------------------

          Ground-State Mulliken Net Atomic Charges

     Atom                 Charge (a.u.)
  ----------------------------------------
      1 C                     0.015599
      2 H                     0.185301
      3 N                    -0.200900
  ----------------------------------------
  Sum of atomic charges =     0.000000

 -----------------------------------------------------------------
                    Cartesian Multipole Moments
 -----------------------------------------------------------------
    Charge (ESU x 10^10)
                 0.0000
    Dipole Moment (Debye)
         X       2.8027      Y       0.2135      Z       0.0000
       Tot       2.8108
    Quadrupole Moments (Debye-Ang)
        XX     -10.1215     XY       0.4472     YY     -11.5429
        XZ      -0.0000     YZ      -0.0000     ZZ     -11.6533
    Octopole Moments (Debye-Ang^2)
       XXX       6.6888    XXY       0.8692    XYY       0.1964
       YYY       0.4348    XXZ       0.0000    XYZ       0.0000
       YYZ       0.0000    XZZ       0.0495    YZZ       0.1385
       ZZZ       0.0000
    Hexadecapole Moments (Debye-Ang^3)
      XXXX     -37.3056   XXXY       1.8327   XXYY      -8.8799
      XYYY       0.3357   YYYY     -11.4791   XXXZ       0.0000
      XXYZ      -0.0000   XYYZ      -0.0000   YYYZ      -0.0000
      XXZZ      -9.0759   XYZZ       0.0992   YYZZ      -3.7800
      XZZZ      -0.0000   YZZZ      -0.0000   ZZZZ     -11.1944
 -----------------------------------------------------------------
Archival summary:
1\1\Deborahs-MacBook-Air.local\OPT\MP2\6-311G**\111\TueMay612:23:452014TueMay612:23:452014\0\\#,OPT,MP2,6-311G**,\\0,1\C\H,1,1.06841\N,1,1.17202,2,160\\HF=-92.8898541\MP2=-93.233387\\@

 Total job time:  5.39s(wall), 5.32s(cpu) 
 Tue May  6 12:23:45 2014

        *************************************************************
        *                                                           *
        *  Thank you very much for using Q-Chem.  Have a nice day.  *
        *                                                           *
        *************************************************************


 
User input: 3 of 17 
 
/Users/Deb/Programs/trunk/build/qcprog.exe .hcn_hnc.inp.26844.qcin.3 /tmp/qchem26844/

                  Welcome to Q-Chem
     A Quantum Leap Into The Future Of Chemistry

 Y. Shao, L. Fusti-Molnar, Y. Jung, J. Kussmann, C. Ochsenfeld, S. T. Brown, 
 A. T. B. Gilbert, L. V. Slipchenko, S. V. Levchenko, D. P. O'Neill, 
 R. A. DiStasio Jr., R. C. Lochan, T. Wang, G. J. O. Beran, N. A. Besley, 
 J. M. Herbert, C. Y. Lin, T. Van Voorhis, S. H. Chien, A. Sodt, R. P. Steele, 
 V. A. Rassolov, P. E. Maslen, P. P. Korambath, R. D. Adamson, B. Austin, 
 J. Baker, E. F. C. Byrd, H. Dachsel, R. J. Doerksen, A. Dreuw, B. D. Dunietz, 
 A. D. Dutoi, T. R. Furlani, S. R. Gwaltney, A. Heyden, S. Hirata, C.-P. Hsu, 
 G. Kedziora, R. Z. Khaliullin, P. Klunzinger, A. M. Lee, M. S. Lee, W. Liang, 
 I. Lotan, N. Nair, B. Peters, E. I. Proynov, P. A. Pieniazek, Y. M. Rhee, 
 J. Ritchie, E. Rosta, C. D. Sherrill, A. C. Simmonett, J. E. Subotnik, 
 H. L. Woodcock III, W. Zhang, A. T. Bell, A. K. Chakraborty, D. M. Chipman, 
 F. J. Keil, A. Warshel, W. J. Hehre, H. F. Schaefer III, J. Kong, 
 A. I. Krylov, P. M. W. Gill, M. Head-Gordon

 Additional authors for Version 3.1: 
 Z. Gan, Y. Zhao, N. E. Schultz, D. Truhlar, E. Epifanovsky, M. Oana

 Additional authors for Version 3.2: 
 R. Baer, B. R. Brooks, D. Casanova, J.-D. Chai, C.-L. Cheng, C. Cramer, 
 D. Crittenden, A. Ghysels, G. Hawkins, E. G. Hohenstein, C. Kelley, 
 W. Kurlancheek, D. Liotard, E. Livshits, P. Manohar, A. Marenich, 
 D. Neuhauser, R. Olson, M. A. Rohrdanz, K. S. Thanthiriwatte, A. J. W. Thom, 
 V. Vanovschi, C. F. Williams, Q. Wu, Z.-Q. You

 Additional authors for Version 4.0: 
 A. Aspuru-Guzik, Y. Bernard, C. Chang, J. Deng, A. Dreuw, M. Diedenhofen, 
 R. G. Edgar, D. Ghosh, W. A. Goddard III, M. Goldey, L. D. Jacobson, 
 M. Gordon, B. Kaduk, I. Kaliman, K. Khistyaev, R. King, A. Klamt, 
 D. Kosenkov, T. Kus, D. Lambrecht, A. Landau, A. W. Lange, K. Lawler, F. Liu, 
 J. Liu, R. Olivares-Amaya, S. P. Mao, J. Parkhill, N. Russ, M. Schmidt, 
 N. Shenvi, D. Small, Y. C. Su, E. Sundstrom, L. Vogt, O. Vydrov, M. Watson, 
 M. Wormit, X. Xu, S. Yeganeh, I. Y. Zhang, D. Zuev

 Additional authors for Version 4.1: 
 X. Feng, M. W. D. Hanson-Heine, P. Horn, H. Ji, A. Laurent, R. Peverati, 
 N. Mardirossian, N. Sergueev, S. Sharada, P. Zimmerman

 Q-Chem, Version 4.1, Q-Chem, Inc., Pittsburgh, PA (2013).

 Parts of Q-Chem use Armadillo 4.100.2 (Dirt Cruiser).
 http://arma.sourceforge.net/

 MAC (Intel) OSX Version 4.1.2

 Q-chem begins on Tue May  6 12:23:45 2014  

Deborahs-MacBook-Air.local
Host: 0

     Scratch files written to /tmp/qchem26844//
 Apr1114 |Users|Deb|Programs|trunk|libmdc|qstr_info.C -1
Finally everything over in PARseQInput

--------------------------------------------------------------
User input:
--------------------------------------------------------------
$molecule
read
$end

$rem
JOBTYPE OPT
EXCHANGE HF
CORRELATION MP2
BASIS 6-311G**
SCF_GUESS READ
$end

$opt
CONSTRAINT
bend 3 1 2 150.0
ENDCONSTRAINT
$end
--------------------------------------------------------------
 ----------------------------------------------------------------
             Standard Nuclear Orientation (Angstroms)
    I     Atom           X                Y                Z
 ----------------------------------------------------------------
    1      C       0.5105025988    -0.0675865141    -0.0000000000
    2      H       1.5407291443     0.2154830574     0.0000000000
    3      N      -0.6576778196     0.0271480039     0.0000000000
 ----------------------------------------------------------------
 Molecular Point Group                 Cs    NOp =  2
 Largest Abelian Subgroup              Cs    NOp =  2
 Nuclear Repulsion Energy =    23.6140266931 hartrees
 There are        7 alpha and        7 beta electrons
 Requested basis set is 6-311G(d,p)
 There are 14 shells and 42 basis functions

Total QAlloc Memory Limit   2000 MB
Mega-Array Size        61 MB
MEM_STATIC part        62 MB
 A cutoff of  1.0D-11 yielded    105 shell pairs
 There are       962 function pairs (      1059 Cartesian)
 Smallest overlap matrix eigenvalue = 5.73E-03

  Scale SEOQF with 1.000000e-01/1.000000e+00/1.000000e+00

 Standard Electronic Orientation quadrupole field applied
 Nucleus-field energy     =     0.0000000003 hartrees
 Guess MOs from SCF MO coefficient file
Reading MOs from coefficient file
Reading MOs from coefficient file
 A restricted Hartree-Fock SCF calculation will be
 performed using Pulay DIIS extrapolation
 SCF converges when DIIS error is below 1.0E-08
 ---------------------------------------
  Cycle       Energy         DIIS Error
 ---------------------------------------
    1     -92.8898534298      1.36E-06
    2     -92.8898541457      1.79E-07
    3     -92.8898541457      7.40E-08
    4     -92.8898541457      4.16E-08
    5     -92.8898541457      1.92E-08
    6     -92.8898541457      4.52E-09 Convergence criterion met
 ---------------------------------------
 SCF time:  CPU 0.18 s  wall 0.18 s
 SCF   energy in the final basis set = -92.8898541457
 Total energy in the final basis set = -92.8898541457

 Components of the MP2 correlation energy:
        aaaa  correlation energy =        -0.0410750030 au
        abab  correlation energy =        -0.2613828842 au
        bbbb  correlation energy =        -0.0410750030 au
        non-Brillouin singles    =        -0.0000000000 au

 Total  MP2   correlation energy =        -0.3435328901 au
        MP2         total energy =       -93.2333870358 au

  Entering Z-vector solver.
OV_DIM:  Setting MaxSz  = 245
OV_DIM:  Setting MaxSpc = 245
   1         0           1      0.000665    0.000665
   2         0           1      0.000167    0.000167
   3         0           1      0.000101    0.000101
   4         0           1      0.000051    0.000051
   5         0           1      0.000016    0.000016
   6         0           1      0.000003    0.000003
   7         1           0      0.000000    0.000000    Roots Converged
 Analysis of SCF Wavefunction

 --------------------------------------------------------------
             Orbital Energies (a.u.) and Symmetries
 --------------------------------------------------------------

 Alpha MOs, Restricted
 -- Occupied --                  
-15.605 -11.295  -1.230  -0.808  -0.582  -0.490  -0.489
  1 A'    2 A'    3 A'    4 A'    5 A'    1 A"    6 A'                         
 -- Virtual --                   
  0.136   0.172   0.173   0.314   0.574   0.576   0.586   0.740
  7 A'    8 A'    2 A"    9 A'   10 A'    3 A"   11 A'   12 A'                 
  0.788   0.897   0.907   1.094   1.305   1.374   1.473   1.526
 13 A'    4 A"   14 A'   15 A'   16 A'    5 A"   17 A'    6 A"                 
  1.566   1.935   2.056   2.247   2.394   2.396   2.700   2.845
 18 A'   19 A'    7 A"   20 A'    8 A"   21 A'   22 A'   23 A'                 
  2.913   3.069   3.143   3.186   3.357   3.705   4.280   4.345
  9 A"   24 A'   10 A"   25 A'   26 A'   27 A'   11 A"   28 A'                 
  4.885  25.316  37.080
 29 A'   30 A'   31 A'                                                         

 Beta MOs, Restricted
 -- Occupied --                  
-15.605 -11.295  -1.230  -0.808  -0.582  -0.490  -0.489
  1 A'    2 A'    3 A'    4 A'    5 A'    1 A"    6 A'                         
 -- Virtual --                   
  0.136   0.172   0.173   0.314   0.574   0.576   0.586   0.740
  7 A'    8 A'    2 A"    9 A'   10 A'    3 A"   11 A'   12 A'                 
  0.788   0.897   0.907   1.094   1.305   1.374   1.473   1.526
 13 A'    4 A"   14 A'   15 A'   16 A'    5 A"   17 A'    6 A"                 
  1.566   1.935   2.056   2.247   2.394   2.396   2.700   2.845
 18 A'   19 A'    7 A"   20 A'    8 A"   21 A'   22 A'   23 A'                 
  2.913   3.069   3.143   3.186   3.357   3.705   4.280   4.345
  9 A"   24 A'   10 A"   25 A'   26 A'   27 A'   11 A"   28 A'                 
  4.885  25.316  37.080
 29 A'   30 A'   31 A'                                                         
 --------------------------------------------------------------

          Ground-State Mulliken Net Atomic Charges

     Atom                 Charge (a.u.)
  ----------------------------------------
      1 C                     0.015599
      2 H                     0.185301
      3 N                    -0.200900
  ----------------------------------------
  Sum of atomic charges =     0.000000

 -----------------------------------------------------------------
                    Cartesian Multipole Moments
 -----------------------------------------------------------------
    Charge (ESU x 10^10)
                 0.0000
    Dipole Moment (Debye)
         X       2.8027      Y       0.2136      Z       0.0000
       Tot       2.8108
    Quadrupole Moments (Debye-Ang)
        XX     -10.1169     XY       0.4477     YY     -11.5429
        XZ      -0.0000     YZ      -0.0000     ZZ     -11.6533
    Octopole Moments (Debye-Ang^2)
       XXX       6.6637    XXY       0.8690    XYY       0.1870
       YYY       0.4314    XXZ       0.0000    XYZ      -0.0000
       YYZ      -0.0000    XZZ       0.0399    YZZ       0.1373
       ZZZ      -0.0000
    Hexadecapole Moments (Debye-Ang^3)
      XXXX     -37.2838   XXXY       1.8354   XXYY      -8.8794
      XYYY       0.3359   YYYY     -11.4789   XXXZ       0.0000
      XXYZ      -0.0000   XYYZ      -0.0000   YYYZ      -0.0000
      XXZZ      -9.0759   XYZZ       0.0992   YYZZ      -3.7799
      XZZZ      -0.0000   YZZZ      -0.0000   ZZZZ     -11.1944
 -----------------------------------------------------------------
 DrvMan is completing analytic gradient of the MP2 energy
 MP2 relaxed dipole moment
            1
    1   1.1026674
    2   0.0840227
    3   0.0000000
	Magnitude:	 1.106 au	 2.811 Debye
 MP2 energy read as -93.233387
 Full Analytical Gradient of MP2 Energy (in au.)
             1             2             3
    1    0.00213034   -0.00308034    0.00095000
    2   -0.02083652    0.01071823    0.01011829
    3   -0.00000000    0.00000000    0.00000000
 Gradient time:  CPU 0.00 s  wall 0.00 s
 Geometry Optimization Parameters
   NAtoms,    NIC,     NZ,  NCons,   NDum,   NFix, NCnnct, MaxDiis
        3       9       0       1       0       0       0       0


** CONSTRAINED OPTIMIZATION IN DELOCALIZED INTERNAL COORDINATES **
   Searching for a Minimum

   Optimization Cycle:   1

                       Coordinates (Angstroms)
     ATOM                X               Y               Z
      1  C         0.5105025988   -0.0675865141    0.0000000000
      2  H         1.5407291443    0.2154830574    0.0000000000
      3  N        -0.6576778196    0.0271480039    0.0000000000
   Point Group: cs    Number of degrees of freedom:     3


   Energy is    -93.233387036

              Constraints and their Current Values
                                        Value     Constraint
   Angle:           3   1   2          160.000      150.000

 Attempting to Generate Delocalized Internal Coordinates
 GETINT wrote B to file, NVib is            3
 GETINT wrote B to file, NVib is            3
**WARNING** Problems with Internal Coordinates
  Switching to Cartesian Coordinates

   Using Lagrange Multiplier Algorithm


 Translations and Rotations Projected Out of Hessian

  4 Hessian modes will be used to form the next step
  Hessian Eigenvalues:
    -0.752456    1.000000    1.000000    1.752456

 Minimum Search - Taking P-RFO Step
 Searching for Lamda that Maximizes Along the Constraint modes Only
 Value Taken    Lamda =   0.03266022
 Searching for Lamda that Minimizes Along All other modes
 Value Taken    Lamda =  -0.00312490
 Step Taken.  Stepsize is  0.208277

                             Maximum     Tolerance    Cnvgd?
         Gradient           0.174533      0.000300      NO
         Displacement       0.147473      0.001200      NO
         Energy change     *********      0.000001      NO

 ----------------------------------------------------------------
             Standard Nuclear Orientation (Angstroms)
    I     Atom           X                Y                Z
 ----------------------------------------------------------------
    1      C       0.5169226458    -0.1304653107     0.0000000000
    2      H       1.5319039151     0.2478626304     0.0000000000
    3      N      -0.6552726374     0.0576472275     0.0000000000
 ----------------------------------------------------------------
 Molecular Point Group                 Cs    NOp =  2
 Largest Abelian Subgroup              Cs    NOp =  2
 Nuclear Repulsion Energy =    23.3394375437 hartrees
 There are        7 alpha and        7 beta electrons
 Applying Cartesian multipole field
    Component          Value
    ---------          -----
     (2,0,0)        1.00000E-11
     (0,2,0)        2.00000E-10
     (0,0,2)       -3.00000E-10
 Nucleus-field energy     =     0.0000000004 hartrees
 Requested basis set is 6-311G(d,p)
 There are 14 shells and 42 basis functions
 A cutoff of  1.0D-11 yielded    105 shell pairs
 There are       962 function pairs (      1059 Cartesian)
 Smallest overlap matrix eigenvalue = 6.97E-03
 Guess MOs from SCF MO coefficient file
Reading MOs from coefficient file
Reading MOs from coefficient file
 A restricted Hartree-Fock SCF calculation will be
 performed using Pulay DIIS extrapolation
 SCF converges when DIIS error is below 1.0E-08
Geometry optimization detected.  Setting ReadMinima to 0
Setting SaveMinima to 0
 ---------------------------------------
  Cycle       Energy         DIIS Error
 ---------------------------------------
    1     -92.8369266130      8.22E-03
    2     -92.8798908711      1.23E-03
    3     -92.8804445901      5.11E-04
    4     -92.8805388331      2.93E-04
    5     -92.8805748323      1.43E-04
    6     -92.8805893326      6.43E-05
    7     -92.8805952951      2.22E-05
    8     -92.8805961575      9.27E-06
    9     -92.8805962986      2.09E-06
   10     -92.8805963047      5.98E-07
   11     -92.8805963051      1.08E-07
   12     -92.8805963051      2.05E-08
   13     -92.8805963051      8.86E-09 Convergence criterion met
 ---------------------------------------
 SCF time:  CPU 0.34 s  wall 0.34 s
 SCF   energy in the final basis set = -92.8805963051
 Total energy in the final basis set = -92.8805963051

 Components of the MP2 correlation energy:
        aaaa  correlation energy =        -0.0416030559 au
        abab  correlation energy =        -0.2645563640 au
        bbbb  correlation energy =        -0.0416030559 au
        non-Brillouin singles    =        -0.0000000000 au

 Total  MP2   correlation energy =        -0.3477624757 au
        MP2         total energy =       -93.2283587808 au

  Entering Z-vector solver.
OV_DIM:  Setting MaxSz  = 245
OV_DIM:  Setting MaxSpc = 245
   1         0           1      0.000764    0.000764
   2         0           1      0.000266    0.000266
   3         0           1      0.000184    0.000184
   4         0           1      0.000122    0.000122
   5         0           1      0.000021    0.000021
   6         0           1      0.000004    0.000004
   7         0           1      0.000001    0.000001
   8         1           0      0.000000    0.000000    Roots Converged
 Analysis of SCF Wavefunction

 --------------------------------------------------------------
             Orbital Energies (a.u.) and Symmetries
 --------------------------------------------------------------

 Alpha MOs, Restricted
 -- Occupied --                  
-15.612 -11.300  -1.225  -0.799  -0.583  -0.487  -0.485
  1 A'    2 A'    3 A'    4 A'    5 A'    1 A"    6 A'                         
 -- Virtual --                   
  0.118   0.168   0.170   0.326   0.569   0.578   0.582   0.736
  7 A'    2 A"    8 A'    9 A'   10 A'    3 A"   11 A'   12 A'                 
  0.788   0.893   0.910   1.033   1.292   1.356   1.473   1.545
 13 A'    4 A"   14 A'   15 A'   16 A'    5 A"   17 A'    6 A"                 
  1.627   1.856   2.030   2.273   2.398   2.405   2.649   2.772
 18 A'   19 A'    7 A"   20 A'    8 A"   21 A'   22 A'   23 A'                 
  2.883   3.072   3.126   3.172   3.305   3.756   4.258   4.344
  9 A"   24 A'   10 A"   25 A'   26 A'   27 A'   11 A"   28 A'                 
  4.843  25.196  37.019
 29 A'   30 A'   31 A'                                                         

 Beta MOs, Restricted
 -- Occupied --                  
-15.612 -11.300  -1.225  -0.799  -0.583  -0.487  -0.485
  1 A'    2 A'    3 A'    4 A'    5 A'    1 A"    6 A'                         
 -- Virtual --                   
  0.118   0.168   0.170   0.326   0.569   0.578   0.582   0.736
  7 A'    2 A"    8 A'    9 A'   10 A'    3 A"   11 A'   12 A'                 
  0.788   0.893   0.910   1.033   1.292   1.356   1.473   1.545
 13 A'    4 A"   14 A'   15 A'   16 A'    5 A"   17 A'    6 A"                 
  1.627   1.856   2.030   2.273   2.398   2.405   2.649   2.772
 18 A'   19 A'    7 A"   20 A'    8 A"   21 A'   22 A'   23 A'                 
  2.883   3.072   3.126   3.172   3.305   3.756   4.258   4.344
  9 A"   24 A'   10 A"   25 A'   26 A'   27 A'   11 A"   28 A'                 
  4.843  25.196  37.019
 29 A'   30 A'   31 A'                                                         
 --------------------------------------------------------------

          Ground-State Mulliken Net Atomic Charges

     Atom                 Charge (a.u.)
  ----------------------------------------
      1 C                    -0.002913
      2 H                     0.190090
      3 N                    -0.187177
  ----------------------------------------
  Sum of atomic charges =    -0.000000

 -----------------------------------------------------------------
                    Cartesian Multipole Moments
 -----------------------------------------------------------------
    Charge (ESU x 10^10)
                -0.0000
    Dipole Moment (Debye)
         X       2.7206      Y       0.2088      Z       0.0000
       Tot       2.7286
    Quadrupole Moments (Debye-Ang)
        XX     -10.2175     XY       0.5794     YY     -11.5368
        XZ       0.0000     YZ       0.0000     ZZ     -11.7338
    Octopole Moments (Debye-Ang^2)
       XXX       6.2069    XXY       1.1211    XYY       0.1753
       YYY       0.9545    XXZ       0.0000    XYZ      -0.0000
       YYZ       0.0000    XZZ      -0.0749    YZZ       0.3134
       ZZZ       0.0000
    Hexadecapole Moments (Debye-Ang^3)
      XXXX     -37.8880   XXXY       3.0416   XXYY      -8.9478
      XYYY       1.1691   YYYY     -12.1029   XXXZ      -0.0000
      XXYZ       0.0000   XYYZ      -0.0000   YYYZ       0.0000
      XXZZ      -9.1659   XYZZ       0.3695   YYZZ      -3.9110
      XZZZ      -0.0000   YZZZ       0.0000   ZZZZ     -11.3475
 -----------------------------------------------------------------
 DrvMan is completing analytic gradient of the MP2 energy
 MP2 relaxed dipole moment
            1
    1   1.0703607
    2   0.0821301
    3   0.0000000
	Magnitude:	 1.074 au	 2.729 Debye
 MP2 energy read as -93.228359
 Full Analytical Gradient of MP2 Energy (in au.)
             1             2             3
    1    0.01865984    0.00287252   -0.02153236
    2   -0.03569825    0.01777660    0.01792165
    3   -0.00000000   -0.00000000    0.00000000
 Gradient time:  CPU 0.00 s  wall 0.00 s
 Geometry Optimization Parameters
   NAtoms,    NIC,     NZ,  NCons,   NDum,   NFix, NCnnct, MaxDiis
        3       9       0       1       0       0       0       0

 Cartesian Hessian Update
 Hessian Updated using BFGS Update


** CONSTRAINED OPTIMIZATION IN CARTESIAN COORDINATES **
   Searching for a Minimum

   Optimization Cycle:   2

                       Coordinates (Angstroms)
     ATOM                X               Y               Z
      1  C         0.5169226458   -0.1304653107    0.0000000000
      2  H         1.5319039151    0.2478626304    0.0000000000
      3  N        -0.6552726374    0.0576472275    0.0000000000
   Point Group: cs    Number of degrees of freedom:     3


   Energy is    -93.228358781

              Constraints and their Current Values
                                        Value     Constraint
   Angle:           3   1   2          150.440      150.000

   Using Lagrange Multiplier Algorithm


 Translations and Rotations Projected Out of Hessian

  4 Hessian modes will be used to form the next step
  Hessian Eigenvalues:
    -1.087591    0.979473    1.169438    1.357040

 Minimum Search - Taking P-RFO Step
 Searching for Lamda that Maximizes Along the Constraint modes Only
 Value Taken    Lamda =   0.00589396
 Searching for Lamda that Minimizes Along All other modes
 Value Taken    Lamda =  -0.00824313
 Step Taken.  Stepsize is  0.112227

                             Maximum     Tolerance    Cnvgd?
         Gradient           0.096714      0.000300      NO
         Displacement       0.109676      0.001200      NO
         Energy change      0.005028      0.000001      NO

 ----------------------------------------------------------------
             Standard Nuclear Orientation (Angstroms)
    I     Atom           X                Y                Z
 ----------------------------------------------------------------
    1      C       0.5112894775    -0.1327618504     0.0000000000
    2      H       1.5275462965     0.2491989544     0.0000000000
    3      N      -0.6452818505     0.0586074432     0.0000000000
 ----------------------------------------------------------------
 Molecular Point Group                 Cs    NOp =  2
 Largest Abelian Subgroup              Cs    NOp =  2
 Nuclear Repulsion Energy =    23.5816990052 hartrees
 There are        7 alpha and        7 beta electrons
 Applying Cartesian multipole field
    Component          Value
    ---------          -----
     (2,0,0)        1.00000E-11
     (0,2,0)        2.00000E-10
     (0,0,2)       -3.00000E-10
 Nucleus-field energy     =     0.0000000004 hartrees
 Requested basis set is 6-311G(d,p)
 There are 14 shells and 42 basis functions
 A cutoff of  1.0D-11 yielded    105 shell pairs
 There are       962 function pairs (      1059 Cartesian)
 Smallest overlap matrix eigenvalue = 6.70E-03
 Guess MOs from SCF MO coefficient file
Reading MOs from coefficient file
Reading MOs from coefficient file
 A restricted Hartree-Fock SCF calculation will be
 performed using Pulay DIIS extrapolation
 SCF converges when DIIS error is below 1.0E-08
Geometry optimization detected.  Setting ReadMinima to 0
Setting SaveMinima to 0
 ---------------------------------------
  Cycle       Energy         DIIS Error
 ---------------------------------------
    1     -92.9026762806      2.76E-03
    2     -92.8835887821      3.89E-04
    3     -92.8836261122      1.75E-04
    4     -92.8836317889      6.59E-05
[...]
 ---------------------------------------
  Cycle       Energy         DIIS Error
 ---------------------------------------
    1     -92.8820643587      3.35E-04
    2     -92.8803546068      5.16E-05
    3     -92.8803551437      3.47E-05
    4     -92.8803553563      6.89E-06
    5     -92.8803553781      2.48E-06
    6     -92.8803553814      7.99E-07
    7     -92.8803553819      2.02E-07
    8     -92.8803553819      3.64E-08
    9     -92.8803553819      7.88E-09 Convergence criterion met
 ---------------------------------------
 SCF time:  CPU 0.25 s  wall 0.25 s
 SCF   energy in the final basis set = -92.8803553819
 Total energy in the final basis set = -92.8803553819

 Components of the MP2 correlation energy:
        aaaa  correlation energy =        -0.0385190744 au
        abab  correlation energy =        -0.2498520744 au
        bbbb  correlation energy =        -0.0385190744 au
        non-Brillouin singles    =        -0.0000000000 au

 Total  MP2   correlation energy =        -0.3268902232 au
        MP2         total energy =       -93.2072456051 au

  Entering Z-vector solver.
OV_DIM:  Setting MaxSz  = 245
OV_DIM:  Setting MaxSpc = 245
   1         0           1      0.000942    0.000942
   2         0           1      0.000351    0.000351
   3         0           1      0.000080    0.000080
   4         0           1      0.000018    0.000018
   5         0           1      0.000002    0.000002
   6         1           0      0.000000    0.000000    Roots Converged
 Analysis of SCF Wavefunction

 --------------------------------------------------------------
             Orbital Energies (a.u.) and Symmetries
 --------------------------------------------------------------

 Alpha MOs, Restricted
 -- Occupied --                  
-15.601 -11.298  -1.259  -0.871  -0.514  -0.514  -0.489
  1 A'    2 A'    3 A'    4 A'    1 A"    5 A'    6 A'                         
 -- Virtual --                   
  0.147   0.183   0.183   0.379   0.487   0.608   0.608   0.650
  7 A'    2 A"    8 A'    9 A'   10 A'    3 A"   11 A'   12 A'                 
  0.855   0.855   0.971   1.183   1.306   1.440   1.440   1.542
  4 A"   13 A'   14 A'   15 A'   16 A'    5 A"   17 A'    6 A"                 
  1.542   1.942   1.942   2.062   2.337   2.337   2.529   2.800
 18 A'    7 A"   19 A'   20 A'    8 A"   21 A'   22 A'   23 A'                 
  2.917   2.917   3.207   3.207   3.387   4.013   4.220   4.220
  9 A"   24 A'   10 A"   25 A'   26 A'   27 A'   11 A"   28 A'                 
  5.223  25.078  37.105
 29 A'   30 A'   31 A'                                                         

 Beta MOs, Restricted
 -- Occupied --                  
-15.601 -11.298  -1.259  -0.871  -0.514  -0.514  -0.489
  1 A'    2 A'    3 A'    4 A'    1 A"    5 A'    6 A'                         
 -- Virtual --                   
  0.147   0.183   0.183   0.379   0.487   0.608   0.608   0.650
  7 A'    2 A"    8 A'    9 A'   10 A'    3 A"   11 A'   12 A'                 
  0.855   0.855   0.971   1.183   1.306   1.440   1.440   1.542
  4 A"   13 A'   14 A'   15 A'   16 A'    5 A"   17 A'    6 A"                 
  1.542   1.942   1.942   2.062   2.337   2.337   2.529   2.800
 18 A'    7 A"   19 A'   20 A'    8 A"   21 A'   22 A'   23 A'                 
  2.917   2.917   3.207   3.207   3.387   4.013   4.220   4.220
  9 A"   24 A'   10 A"   25 A'   26 A'   27 A'   11 A"   28 A'                 
  5.223  25.078  37.105
 29 A'   30 A'   31 A'                                                         
 --------------------------------------------------------------

          Ground-State Mulliken Net Atomic Charges

     Atom                 Charge (a.u.)
  ----------------------------------------
      1 C                    -0.006038
      2 N                    -0.242111
      3 H                     0.248148
  ----------------------------------------
  Sum of atomic charges =     0.000000

 -----------------------------------------------------------------
                    Cartesian Multipole Moments
 -----------------------------------------------------------------
    Charge (ESU x 10^10)
                 0.0000
    Dipole Moment (Debye)
         X      -3.2095      Y      -0.7199      Z      -0.0000
       Tot       3.2892
    Quadrupole Moments (Debye-Ang)
        XX     -10.7175     XY       0.5391     YY     -11.7144
        XZ      -0.0000     YZ      -0.0000     ZZ     -11.8970
    Octopole Moments (Debye-Ang^2)
       XXX     -14.9426    XXY      -1.5134    XYY      -2.5536
       YYY       1.5874    XXZ      -0.0000    XYZ      -0.0000
       YYZ      -0.0000    XZZ      -2.0383    YZZ       0.5730
       ZZZ      -0.0000
    Hexadecapole Moments (Debye-Ang^3)
      XXXX     -42.8397   XXXY      -1.9375   XXYY      -9.3292
      XYYY      -3.1587   YYYY     -13.2676   XXXZ      -0.0000
      XXYZ      -0.0000   XYYZ      -0.0000   YYYZ      -0.0000
      XXZZ      -9.5183   XYZZ      -1.1042   YYZZ      -4.1389
      XZZZ      -0.0000   YZZZ      -0.0000   ZZZZ     -11.5202
 -----------------------------------------------------------------
 DrvMan is completing analytic gradient of the MP2 energy
 MP2 relaxed dipole moment
            1
    1  -1.2626986
    2  -0.2832356
    3  -0.0000000
	Magnitude:	 1.294 au	 3.289 Debye
 MP2 energy read as -93.207246
 Full Analytical Gradient of MP2 Energy (in au.)
             1             2             3
    1   -0.00123443    0.00116296    0.00007147
    2   -0.00024658    0.00019229    0.00005429
    3    0.00000000   -0.00000000   -0.00000000
 Gradient time:  CPU 0.00 s  wall 0.00 s
 Geometry Optimization Parameters
   NAtoms,    NIC,     NZ,  NCons,   NDum,   NFix, NCnnct, MaxDiis
        3       9       4       0       0       0       0       0

 Cartesian Hessian Update
 Hessian Updated using BFGS Update


** GEOMETRY OPTIMIZATION IN CARTESIAN COORDINATES **
   Searching for a Minimum

   Optimization Cycle:   7

                       Coordinates (Angstroms)
     ATOM                X               Y               Z
      1  C         0.7669151254    0.0863571017    0.0000000000
      2  N        -0.3832577137   -0.1735127324    0.0000000000
      3  H        -1.3579616292   -0.3912254747    0.0000000000
   Point Group: cs    Number of degrees of freedom:     3


   Energy is    -93.207245605


 Translations and Rotations Projected Out of Hessian

  3 Hessian modes will be used to form the next step
  Hessian Eigenvalues:
     0.050837    0.788823    2.536132

 Minimum Search - Taking Simple RFO Step
 Searching for Lamda that Minimizes Along All modes
 Value Taken    Lamda =  -0.00000155
 Step Taken.  Stepsize is  0.001556

                             Maximum     Tolerance    Cnvgd?
         Gradient           0.001234      0.000300      NO
         Displacement       0.000907      0.001200     YES
         Energy change     -0.000001      0.000001      NO

 ----------------------------------------------------------------
             Standard Nuclear Orientation (Angstroms)
    I     Atom           X                Y                Z
 ----------------------------------------------------------------
    1      C       0.7673618028     0.0862047234     0.0000000000
    2      N      -0.3835764466    -0.1730328757     0.0000000000
    3      H      -1.3580895737    -0.3915529532     0.0000000000
 ----------------------------------------------------------------
 Molecular Point Group                 Cs    NOp =  2
 Largest Abelian Subgroup              Cs    NOp =  2
 Nuclear Repulsion Energy =    24.0052337405 hartrees
 There are        7 alpha and        7 beta electrons
 Applying Cartesian multipole field
    Component          Value
    ---------          -----
     (2,0,0)        1.00000E-10
     (0,2,0)        2.00000E-10
     (0,0,2)       -3.00000E-10
 Nucleus-field energy     =     0.0000000026 hartrees
 Requested basis set is 6-311G(d,p)
 There are 14 shells and 42 basis functions
 A cutoff of  1.0D-11 yielded    105 shell pairs
 There are       962 function pairs (      1059 Cartesian)
 Smallest overlap matrix eigenvalue = 5.82E-03
 Guess MOs from SCF MO coefficient file
Reading MOs from coefficient file
Reading MOs from coefficient file
 A restricted Hartree-Fock SCF calculation will be
 performed using Pulay DIIS extrapolation
 SCF converges when DIIS error is below 1.0E-08
Geometry optimization detected.  Setting ReadMinima to 0
Setting SaveMinima to 0
 ---------------------------------------
  Cycle       Energy         DIIS Error
 ---------------------------------------
    1     -92.8795944426      1.29E-04
    2     -92.8802745088      1.99E-05
    3     -92.8802745812      1.35E-05
    4     -92.8802746126      2.38E-06
    5     -92.8802746150      9.01E-07
    6     -92.8802746154      2.76E-07
    7     -92.8802746155      7.23E-08
    8     -92.8802746155      1.26E-08
    9     -92.8802746155      6.07E-09 Convergence criterion met
 ---------------------------------------
 SCF time:  CPU 0.24 s  wall 0.25 s
 SCF   energy in the final basis set = -92.8802746155
 Total energy in the final basis set = -92.8802746155

 Components of the MP2 correlation energy:
        aaaa  correlation energy =        -0.0385303844 au
        abab  correlation energy =        -0.2499110402 au
        bbbb  correlation energy =        -0.0385303844 au
        non-Brillouin singles    =        -0.0000000000 au

 Total  MP2   correlation energy =        -0.3269718091 au
        MP2         total energy =       -93.2072464246 au

  Entering Z-vector solver.
OV_DIM:  Setting MaxSz  = 245
OV_DIM:  Setting MaxSpc = 245
   1         0           1      0.000944    0.000944
   2         0           1      0.000352    0.000352
   3         0           1      0.000080    0.000080
   4         0           1      0.000018    0.000018
   5         0           1      0.000002    0.000002
   6         1           0      0.000000    0.000000    Roots Converged
 Analysis of SCF Wavefunction

 --------------------------------------------------------------
             Orbital Energies (a.u.) and Symmetries
 --------------------------------------------------------------

 Alpha MOs, Restricted
 -- Occupied --                  
-15.602 -11.298  -1.258  -0.871  -0.514  -0.514  -0.490
  1 A'    2 A'    3 A'    4 A'    1 A"    5 A'    6 A'                         
 -- Virtual --                   
  0.147   0.183   0.183   0.379   0.487   0.608   0.608   0.650
  7 A'    2 A"    8 A'    9 A'   10 A'    3 A"   11 A'   12 A'                 
  0.855   0.855   0.971   1.182   1.306   1.439   1.439   1.542
  4 A"   13 A'   14 A'   15 A'   16 A'    5 A"   17 A'    6 A"                 
  1.542   1.942   1.942   2.062   2.336   2.336   2.528   2.800
 18 A'    7 A"   19 A'   20 A'    8 A"   21 A'   22 A'   23 A'                 
  2.917   2.917   3.207   3.207   3.388   4.012   4.220   4.220
  9 A"   24 A'   10 A"   25 A'   26 A'   27 A'   11 A"   28 A'                 
  5.222  25.076  37.104
 29 A'   30 A'   31 A'                                                         

 Beta MOs, Restricted
 -- Occupied --                  
-15.602 -11.298  -1.258  -0.871  -0.514  -0.514  -0.490
  1 A'    2 A'    3 A'    4 A'    1 A"    5 A'    6 A'                         
 -- Virtual --                   
  0.147   0.183   0.183   0.379   0.487   0.608   0.608   0.650
  7 A'    2 A"    8 A'    9 A'   10 A'    3 A"   11 A'   12 A'                 
  0.855   0.855   0.971   1.182   1.306   1.439   1.439   1.542
  4 A"   13 A'   14 A'   15 A'   16 A'    5 A"   17 A'    6 A"                 
  1.542   1.942   1.942   2.062   2.336   2.336   2.528   2.800
 18 A'    7 A"   19 A'   20 A'    8 A"   21 A'   22 A'   23 A'                 
  2.917   2.917   3.207   3.207   3.388   4.012   4.220   4.220
  9 A"   24 A'   10 A"   25 A'   26 A'   27 A'   11 A"   28 A'                 
  5.222  25.076  37.104
 29 A'   30 A'   31 A'                                                         
 --------------------------------------------------------------

          Ground-State Mulliken Net Atomic Charges

     Atom                 Charge (a.u.)
  ----------------------------------------
      1 C                    -0.005921
      2 N                    -0.242244
      3 H                     0.248165
  ----------------------------------------
  Sum of atomic charges =     0.000000

 -----------------------------------------------------------------
                    Cartesian Multipole Moments
 -----------------------------------------------------------------
    Charge (ESU x 10^10)
                -0.0000
    Dipole Moment (Debye)
         X      -3.2078      Y      -0.7205      Z      -0.0000
       Tot       3.2877
    Quadrupole Moments (Debye-Ang)
        XX     -10.7180     XY       0.5414     YY     -11.7150
        XZ      -0.0000     YZ      -0.0000     ZZ     -11.8986
    Octopole Moments (Debye-Ang^2)
       XXX     -14.9454    XXY      -1.5154    XYY      -2.5544
       YYY       1.5826    XXZ      -0.0000    XYZ      -0.0000
       YYZ      -0.0000    XZZ      -2.0386    YZZ       0.5714
       ZZZ      -0.0000
    Hexadecapole Moments (Debye-Ang^3)
      XXXX     -42.8759   XXXY      -1.9301   XXYY      -9.3325
      XYYY      -3.1542   YYYY     -13.2635   XXXZ      -0.0000
      XXYZ      -0.0000   XYYZ      -0.0000   YYYZ      -0.0000
      XXZZ      -9.5245   XYZZ      -1.1029   YYZZ      -4.1388
      XZZZ      -0.0000   YZZZ      -0.0000   ZZZZ     -11.5230
 -----------------------------------------------------------------
 DrvMan is completing analytic gradient of the MP2 energy
 MP2 relaxed dipole moment
            1
    1  -1.2620437
    2  -0.2834602
    3  -0.0000000
	Magnitude:	 1.293 au	 3.288 Debye
 MP2 energy read as -93.207246
 Full Analytical Gradient of MP2 Energy (in au.)
             1             2             3
    1   -0.00003948   -0.00006936    0.00010884
    2    0.00000366   -0.00004297    0.00003930
    3    0.00000000   -0.00000000    0.00000000
 Gradient time:  CPU 0.00 s  wall 0.00 s
 Geometry Optimization Parameters
   NAtoms,    NIC,     NZ,  NCons,   NDum,   NFix, NCnnct, MaxDiis
        3       9       4       0       0       0       0       0

 Cartesian Hessian Update
 Hessian Updated using BFGS Update


** GEOMETRY OPTIMIZATION IN CARTESIAN COORDINATES **
   Searching for a Minimum

   Optimization Cycle:   8

                       Coordinates (Angstroms)
     ATOM                X               Y               Z
      1  C         0.7673618028    0.0862047234    0.0000000000
      2  N        -0.3835764466   -0.1730328757    0.0000000000
      3  H        -1.3580895737   -0.3915529532    0.0000000000
   Point Group: cs    Number of degrees of freedom:     3


   Energy is    -93.207246425


 Translations and Rotations Projected Out of Hessian

  3 Hessian modes will be used to form the next step
  Hessian Eigenvalues:
     0.048951    0.706204    2.786051

 Minimum Search - Taking Simple RFO Step
 Searching for Lamda that Minimizes Along All modes
 Value Taken    Lamda =   0.00000000
 Step Taken.  Stepsize is  0.000561

                             Maximum     Tolerance    Cnvgd?
         Gradient           0.000109      0.000300     YES
         Displacement       0.000437      0.001200     YES
         Energy change     -0.000001      0.000001     YES


                       Distance Matrix (Angstroms)
             C (  1)   N (  2)
   N (  2)  1.179772
   H (  3)  2.178485  0.998713

 Final energy is   -93.207246424598338     


 ******************************
 **  OPTIMIZATION CONVERGED  **
 ******************************

Z-matrix Print:
$molecule
0 1
N 
H  1 0.998713
C  1 1.179772 2 179.945181
$end

 Analysis of SCF Wavefunction

 --------------------------------------------------------------
             Orbital Energies (a.u.) and Symmetries
 --------------------------------------------------------------

 Alpha MOs, Restricted
 -- Occupied --                  
-15.602 -11.298  -1.258  -0.871  -0.514  -0.514  -0.490
  1 A'    2 A'    3 A'    4 A'    1 A"    5 A'    6 A'                         
 -- Virtual --                   
  0.147   0.183   0.183   0.379   0.487   0.608   0.608   0.650
  7 A'    2 A"    8 A'    9 A'   10 A'    3 A"   11 A'   12 A'                 
  0.855   0.855   0.971   1.182   1.306   1.439   1.439   1.542
  4 A"   13 A'   14 A'   15 A'   16 A'    5 A"   17 A'    6 A"                 
  1.542   1.942   1.942   2.062   2.336   2.336   2.528   2.800
 18 A'    7 A"   19 A'   20 A'    8 A"   21 A'   22 A'   23 A'                 
  2.917   2.917   3.207   3.207   3.388   4.012   4.220   4.220
  9 A"   24 A'   10 A"   25 A'   26 A'   27 A'   11 A"   28 A'                 
  5.222  25.076  37.104
 29 A'   30 A'   31 A'                                                         

 Beta MOs, Restricted
 -- Occupied --                  
-15.602 -11.298  -1.258  -0.871  -0.514  -0.514  -0.490
  1 A'    2 A'    3 A'    4 A'    1 A"    5 A'    6 A'                         
 -- Virtual --                   
  0.147   0.183   0.183   0.379   0.487   0.608   0.608   0.650
  7 A'    2 A"    8 A'    9 A'   10 A'    3 A"   11 A'   12 A'                 
  0.855   0.855   0.971   1.182   1.306   1.439   1.439   1.542
  4 A"   13 A'   14 A'   15 A'   16 A'    5 A"   17 A'    6 A"                 
  1.542   1.942   1.942   2.062   2.336   2.336   2.528   2.800
 18 A'    7 A"   19 A'   20 A'    8 A"   21 A'   22 A'   23 A'                 
  2.917   2.917   3.207   3.207   3.388   4.012   4.220   4.220
  9 A"   24 A'   10 A"   25 A'   26 A'   27 A'   11 A"   28 A'                 
  5.222  25.076  37.104
 29 A'   30 A'   31 A'                                                         
 --------------------------------------------------------------

          Ground-State Mulliken Net Atomic Charges

     Atom                 Charge (a.u.)
  ----------------------------------------
      1 C                    -0.005921
      2 N                    -0.242244
      3 H                     0.248165
  ----------------------------------------
  Sum of atomic charges =     0.000000

 -----------------------------------------------------------------
                    Cartesian Multipole Moments
 -----------------------------------------------------------------
    Charge (ESU x 10^10)
                -0.0000
    Dipole Moment (Debye)
         X      -3.2078      Y      -0.7205      Z      -0.0000
       Tot       3.2877
    Quadrupole Moments (Debye-Ang)
        XX     -10.7180     XY       0.5414     YY     -11.7150
        XZ      -0.0000     YZ      -0.0000     ZZ     -11.8986
    Octopole Moments (Debye-Ang^2)
       XXX     -14.9454    XXY      -1.5154    XYY      -2.5544
       YYY       1.5826    XXZ      -0.0000    XYZ      -0.0000
       YYZ      -0.0000    XZZ      -2.0386    YZZ       0.5714
       ZZZ      -0.0000
    Hexadecapole Moments (Debye-Ang^3)
      XXXX     -42.8759   XXXY      -1.9301   XXYY      -9.3325
      XYYY      -3.1542   YYYY     -13.2635   XXXZ      -0.0000
      XXYZ      -0.0000   XYYZ      -0.0000   YYYZ      -0.0000
      XXZZ      -9.5245   XYZZ      -1.1029   YYZZ      -4.1388
      XZZZ      -0.0000   YZZZ      -0.0000   ZZZZ     -11.5230
 -----------------------------------------------------------------
Archival summary:
1\1\Deborahs-MacBook-Air.local\OPT\MP2\6-311G**\111\TueMay612:26:012014TueMay612:26:012014\0\\#,OPT,MP2,6-311G**,\\0,1\N\H,1,0.998713\C,1,1.17977,2,179.945\\HF=-92.8802746\MP2=-93.2072464\\@

 Total job time:  10.69s(wall), 10.52s(cpu) 
 Tue May  6 12:26:01 2014

        *************************************************************
        *                                                           *
        *  Thank you very much for using Q-Chem.  Have a nice day.  *
        *                                                           *
        *************************************************************


