/Users/Deb/Programs/trunk/build/qcprog.exe .hcn_hnc_fine.inp.27751.qcin.1 /tmp/qchem27751/

                  Welcome to Q-Chem
     A Quantum Leap Into The Future Of Chemistry

 Y. Shao, L. Fusti-Molnar, Y. Jung, J. Kussmann, C. Ochsenfeld, S. T. Brown, 
 A. T. B. Gilbert, L. V. Slipchenko, S. V. Levchenko, D. P. O'Neill, 
 R. A. DiStasio Jr., R. C. Lochan, T. Wang, G. J. O. Beran, N. A. Besley, 
 J. M. Herbert, C. Y. Lin, T. Van Voorhis, S. H. Chien, A. Sodt, R. P. Steele, 
 V. A. Rassolov, P. E. Maslen, P. P. Korambath, R. D. Adamson, B. Austin, 
 J. Baker, E. F. C. Byrd, H. Dachsel, R. J. Doerksen, A. Dreuw, B. D. Dunietz, 
 A. D. Dutoi, T. R. Furlani, S. R. Gwaltney, A. Heyden, S. Hirata, C.-P. Hsu, 
 G. Kedziora, R. Z. Khaliullin, P. Klunzinger, A. M. Lee, M. S. Lee, W. Liang, 
 I. Lotan, N. Nair, B. Peters, E. I. Proynov, P. A. Pieniazek, Y. M. Rhee, 
 J. Ritchie, E. Rosta, C. D. Sherrill, A. C. Simmonett, J. E. Subotnik, 
 H. L. Woodcock III, W. Zhang, A. T. Bell, A. K. Chakraborty, D. M. Chipman, 
 F. J. Keil, A. Warshel, W. J. Hehre, H. F. Schaefer III, J. Kong, 
 A. I. Krylov, P. M. W. Gill, M. Head-Gordon

 Additional authors for Version 3.1: 
 Z. Gan, Y. Zhao, N. E. Schultz, D. Truhlar, E. Epifanovsky, M. Oana

 Additional authors for Version 3.2: 
 R. Baer, B. R. Brooks, D. Casanova, J.-D. Chai, C.-L. Cheng, C. Cramer, 
 D. Crittenden, A. Ghysels, G. Hawkins, E. G. Hohenstein, C. Kelley, 
 W. Kurlancheek, D. Liotard, E. Livshits, P. Manohar, A. Marenich, 
 D. Neuhauser, R. Olson, M. A. Rohrdanz, K. S. Thanthiriwatte, A. J. W. Thom, 
 V. Vanovschi, C. F. Williams, Q. Wu, Z.-Q. You

 Additional authors for Version 4.0: 
 A. Aspuru-Guzik, Y. Bernard, C. Chang, J. Deng, A. Dreuw, M. Diedenhofen, 
 R. G. Edgar, D. Ghosh, W. A. Goddard III, M. Goldey, L. D. Jacobson, 
 M. Gordon, B. Kaduk, I. Kaliman, K. Khistyaev, R. King, A. Klamt, 
 D. Kosenkov, T. Kus, D. Lambrecht, A. Landau, A. W. Lange, K. Lawler, F. Liu, 
 J. Liu, R. Olivares-Amaya, S. P. Mao, J. Parkhill, N. Russ, M. Schmidt, 
 N. Shenvi, D. Small, Y. C. Su, E. Sundstrom, L. Vogt, O. Vydrov, M. Watson, 
 M. Wormit, X. Xu, S. Yeganeh, I. Y. Zhang, D. Zuev

 Additional authors for Version 4.1: 
 X. Feng, M. W. D. Hanson-Heine, P. Horn, H. Ji, A. Laurent, R. Peverati, 
 N. Mardirossian, N. Sergueev, S. Sharada, P. Zimmerman

 Q-Chem, Version 4.1, Q-Chem, Inc., Pittsburgh, PA (2013).

 Parts of Q-Chem use Armadillo 4.100.2 (Dirt Cruiser).
 http://arma.sourceforge.net/

 MAC (Intel) OSX Version 4.1.2

 Q-chem begins on Tue May  6 12:59:29 2014  

Deborahs-MacBook-Air.local
Host: 0

     Scratch files written to /tmp/qchem27751//
 Apr1114 |Users|Deb|Programs|trunk|libmdc|qstr_info.C -1
Finally everything over in PARseQInput

--------------------------------------------------------------
User input:
--------------------------------------------------------------
$molecule
0 1
C
H 1 1.066674
N 1 1.169686 2 80.0
$end

$rem
JOBTYPE OPT
EXCHANGE HF
CORRELATION MP2
BASIS 6-311G**
$end

$opt
CONSTRAINT
bend 3 1 2 80.0
ENDCONSTRAINT
$end
--------------------------------------------------------------
 ----------------------------------------------------------------
             Standard Nuclear Orientation (Angstroms)
    I     Atom           X                Y                Z
 ----------------------------------------------------------------
    1      C       0.5849534879    -0.1454347511    -0.0000000000
    2      H       0.5256191838     0.9195877194     0.0000000000
    3      N      -0.5764771588    -0.0067113161     0.0000000000
 ----------------------------------------------------------------
 Molecular Point Group                 Cs    NOp =  2
 Largest Abelian Subgroup              Cs    NOp =  2
 Nuclear Repulsion Energy =    24.5507868244 hartrees
 There are        7 alpha and        7 beta electrons
 Requested basis set is 6-311G(d,p)
 There are 14 shells and 42 basis functions

Total QAlloc Memory Limit   2000 MB
Mega-Array Size        61 MB
MEM_STATIC part        62 MB
 A cutoff of  1.0D-11 yielded    105 shell pairs
 There are       962 function pairs (      1059 Cartesian)
 Smallest overlap matrix eigenvalue = 5.67E-03

  Scale SEOQF with 1.000000e+00/1.000000e+00/1.000000e+00

 Standard Electronic Orientation quadrupole field applied
 Nucleus-field energy     =     0.0000000024 hartrees
 Guess from superposition of atomic densities
 Warning:  Energy on first SCF cycle will be non-variational
 A restricted Hartree-Fock SCF calculation will be
 performed using Pulay DIIS extrapolation
 SCF converges when DIIS error is below 1.0E-08
 ---------------------------------------
  Cycle       Energy         DIIS Error
 ---------------------------------------
    1     -93.1657596830      1.16E-01
    2     -92.7960862873      7.67E-03
    3     -92.8119421452      4.11E-03
    4     -92.8151760183      1.74E-03
    5     -92.8163013471      5.88E-04
    6     -92.8165758525      2.88E-04
    7     -92.8166997219      8.33E-05
    8     -92.8167096355      1.73E-05
    9     -92.8167098225      3.91E-06
   10     -92.8167098315      9.00E-07
   11     -92.8167098323      3.63E-07
   12     -92.8167098324      1.23E-07
   13     -92.8167098324      2.20E-08
   14     -92.8167098324      1.07E-08
   15     -92.8167098324      7.62E-09 Convergence criterion met
 ---------------------------------------
 SCF time:  CPU 0.43 s  wall 0.43 s
 SCF   energy in the final basis set = -92.8167098324
 Total energy in the final basis set = -92.8167098324

 Components of the MP2 correlation energy:
        aaaa  correlation energy =        -0.0397682213 au
        abab  correlation energy =        -0.2528401909 au
        bbbb  correlation energy =        -0.0397682213 au
        non-Brillouin singles    =        -0.0000000000 au

 Total  MP2   correlation energy =        -0.3323766334 au
        MP2         total energy =       -93.1490864659 au

  Entering Z-vector solver.
OV_DIM:  Setting MaxSz  = 245
OV_DIM:  Setting MaxSpc = 245
   1         0           1      0.001714    0.001714
   2         0           1      0.000961    0.000961
   3         0           1      0.000410    0.000410
   4         0           1      0.000093    0.000093
   5         0           1      0.000024    0.000024
   6         0           1      0.000006    0.000006
   7         0           1      0.000002    0.000002
   8         1           0      0.000000    0.000000    Roots Converged
 Analysis of SCF Wavefunction

 --------------------------------------------------------------
             Orbital Energies (a.u.) and Symmetries
 --------------------------------------------------------------

 Alpha MOs, Restricted
 -- Occupied --                  
-15.651 -11.281  -1.315  -0.736  -0.623  -0.535  -0.495
  1 A'    2 A'    3 A'    4 A'    5 A'    1 A"    6 A'                         
 -- Virtual --                   
  0.102   0.174   0.175   0.356   0.470   0.583   0.604   0.707
  7 A'    2 A"    8 A'    9 A'   10 A'    3 A"   11 A'   12 A'                 
  0.779   0.860   0.862   1.025   1.259   1.261   1.472   1.644
 13 A'   14 A'    4 A"   15 A'   16 A'    5 A"   17 A'    6 A"                 
  1.737   1.947   2.095   2.230   2.325   2.404   2.638   2.800
 18 A'   19 A'    7 A"   20 A'    8 A"   21 A'   22 A'   23 A'                 
  2.817   2.970   3.139   3.214   3.389   3.715   4.204   4.287
  9 A"   24 A'   10 A"   25 A'   26 A'   27 A'   11 A"   28 A'                 
  4.810  25.210  36.987
 29 A'   30 A'   31 A'                                                         

 Beta MOs, Restricted
 -- Occupied --                  
-15.651 -11.281  -1.315  -0.736  -0.623  -0.535  -0.495
  1 A'    2 A'    3 A'    4 A'    5 A'    1 A"    6 A'                         
 -- Virtual --                   
  0.102   0.174   0.175   0.356   0.470   0.583   0.604   0.707
  7 A'    2 A"    8 A'    9 A'   10 A'    3 A"   11 A'   12 A'                 
  0.779   0.860   0.862   1.025   1.259   1.261   1.472   1.644
 13 A'   14 A'    4 A"   15 A'   16 A'    5 A"   17 A'    6 A"                 
  1.737   1.947   2.095   2.230   2.325   2.404   2.638   2.800
 18 A'   19 A'    7 A"   20 A'    8 A"   21 A'   22 A'   23 A'                 
  2.817   2.970   3.139   3.214   3.389   3.715   4.204   4.287
  9 A"   24 A'   10 A"   25 A'   26 A'   27 A'   11 A"   28 A'                 
  4.810  25.210  36.987
 29 A'   30 A'   31 A'                                                         
 --------------------------------------------------------------

          Ground-State Mulliken Net Atomic Charges

     Atom                 Charge (a.u.)
  ----------------------------------------
      1 C                    -0.107179
      2 H                     0.201546
      3 N                    -0.094367
  ----------------------------------------
  Sum of atomic charges =    -0.000000

 -----------------------------------------------------------------
                    Cartesian Multipole Moments
 -----------------------------------------------------------------
    Charge (ESU x 10^10)
                 0.0000
    Dipole Moment (Debye)
         X       0.5305      Y       1.0674      Z      -0.0000
       Tot       1.1919
    Quadrupole Moments (Debye-Ang)
        XX     -13.7403     XY       0.7860     YY     -10.0042
        XZ       0.0000     YZ      -0.0000     ZZ     -12.0068
    Octopole Moments (Debye-Ang^2)
       XXX      -2.0399    XXY       0.3770    XYY      -0.0675
       YYY       2.2952    XXZ      -0.0000    XYZ       0.0000
       YYZ      -0.0000    XZZ      -0.7040    YZZ       0.3549
       ZZZ      -0.0000
    Hexadecapole Moments (Debye-Ang^3)
      XXXX     -41.5684   XXXY       0.9786   XXYY      -8.4519
      XYYY       1.4956   YYYY     -12.7438   XXXZ       0.0000
      XXYZ      -0.0000   XYYZ       0.0000   YYYZ      -0.0000
      XXZZ      -8.4558   XYZZ       0.2362   YYZZ      -4.3880
      XZZZ       0.0000   YZZZ      -0.0000   ZZZZ     -11.8586
 -----------------------------------------------------------------
 DrvMan is completing analytic gradient of the MP2 energy
 MP2 relaxed dipole moment
            1
    1   0.2087164
    2   0.4199340
    3  -0.0000000
	Magnitude:	 0.469 au	 1.192 Debye
 MP2 energy read as -93.149086
 Full Analytical Gradient of MP2 Energy (in au.)
             1             2             3
    1   -0.02068887   -0.01927928    0.03996815
    2    0.04096492   -0.05676567    0.01580076
    3    0.00000000    0.00000000   -0.00000000
 Gradient time:  CPU 0.00 s  wall 0.00 s
 Geometry Optimization Parameters
   NAtoms,    NIC,     NZ,  NCons,   NDum,   NFix, NCnnct, MaxDiis
        3       9       3       1       0       0       0       0


** CONSTRAINED OPTIMIZATION IN DELOCALIZED INTERNAL COORDINATES **
   Searching for a Minimum

   Optimization Cycle:   1

                       Coordinates (Angstroms)
     ATOM                X               Y               Z
      1  C         0.5849534879   -0.1454347511    0.0000000000
      2  H         0.5256191838    0.9195877194    0.0000000000
      3  N        -0.5764771588   -0.0067113161    0.0000000000
   Point Group: cs    Number of degrees of freedom:     3


   Energy is    -93.149086466

              Constraints and their Current Values
                                        Value     Constraint
   Angle:           3   1   2           80.000       80.000

 Attempting to Generate Delocalized Internal Coordinates
 GETINT wrote B to file, NVib is            3
 GETINT wrote B to file, NVib is            3
**WARNING** Problems with Internal Coordinates
  Switching to Cartesian Coordinates

   Using Lagrange Multiplier Algorithm


 Translations and Rotations Projected Out of Hessian

  4 Hessian modes will be used to form the next step
  Hessian Eigenvalues:
    -0.536162    1.000000    1.000000    1.536162

 Minimum Search - Taking P-RFO Step
 Searching for Lamda that Maximizes Along the Constraint modes Only
 Value Taken    Lamda =   0.00002145
 Searching for Lamda that Minimizes Along All other modes
 Value Taken    Lamda =  -0.00746858
 Step Taken.  Stepsize is  0.086289

                             Maximum     Tolerance    Cnvgd?
         Gradient           0.056766      0.000300      NO
         Displacement       0.056548      0.001200      NO
         Energy change     *********      0.000001      NO

 ----------------------------------------------------------------
             Standard Nuclear Orientation (Angstroms)
    I     Atom           X                Y                Z
 ----------------------------------------------------------------
    1      C       0.5941127793    -0.1653203015     0.0000000000
    2      H       0.5376604098     0.9495114692     0.0000000000
    3      N      -0.5976776760    -0.0167495155     0.0000000000
 ----------------------------------------------------------------
 Molecular Point Group                 Cs    NOp =  2
 Largest Abelian Subgroup              Cs    NOp =  2
 Nuclear Repulsion Energy =    23.8345600439 hartrees
 There are        7 alpha and        7 beta electrons
 Applying Cartesian multipole field
    Component          Value
    ---------          -----
     (2,0,0)        1.00000E-10
     (0,2,0)        2.00000E-10
     (0,0,2)       -3.00000E-10
 Nucleus-field energy     =     0.0000000025 hartrees
 Requested basis set is 6-311G(d,p)
 There are 14 shells and 42 basis functions
 A cutoff of  1.0D-11 yielded    105 shell pairs
 There are       962 function pairs (      1059 Cartesian)
 Smallest overlap matrix eigenvalue = 6.37E-03
 Guess MOs from SCF MO coefficient file
Reading MOs from coefficient file
Reading MOs from coefficient file
 A restricted Hartree-Fock SCF calculation will be
 performed using Pulay DIIS extrapolation
 SCF converges when DIIS error is below 1.0E-08
Geometry optimization detected.  Setting ReadMinima to 0
Setting SaveMinima to 0
 ---------------------------------------
  Cycle       Energy         DIIS Error
 ---------------------------------------
    1     -92.7559202890      6.58E-03
    2     -92.8171629251      9.34E-04
    3     -92.8173847968      4.36E-04
    4     -92.8174193128      1.49E-04
    5     -92.8174272200      7.11E-05
    6     -92.8174314194      2.96E-05
    7     -92.8174328011      9.06E-06
    8     -92.8174329180      2.71E-06
    9     -92.8174329237      8.79E-07
   10     -92.8174329245      2.24E-07
   11     -92.8174329245      9.02E-08
   12     -92.8174329245      1.56E-08
   13     -92.8174329245      8.37E-09 Convergence criterion met
 ---------------------------------------
 SCF time:  CPU 0.35 s  wall 0.35 s
 SCF   energy in the final basis set = -92.8174329245
 Total energy in the final basis set = -92.8174329245

 Components of the MP2 correlation energy:
        aaaa  correlation energy =        -0.0400694754 au
        abab  correlation energy =        -0.2551450977 au
        bbbb  correlation energy =        -0.0400694754 au
        non-Brillouin singles    =        -0.0000000000 au

 Total  MP2   correlation energy =        -0.3352840485 au
        MP2         total energy =       -93.1527169731 au

  Entering Z-vector solver.
OV_DIM:  Setting MaxSz  = 245
OV_DIM:  Setting MaxSpc = 245
   1         0           1      0.001933    0.001933
   2         0           1      0.001082    0.001082
   3         0           1      0.000484    0.000484
   4         0           1      0.000111    0.000111
   5         0           1      0.000031    0.000031
   6         0           1      0.000009    0.000009
   7         0           1      0.000003    0.000003
   8         0           1      0.000001    0.000001
   9         1           0      0.000000    0.000000    Roots Converged
 Analysis of SCF Wavefunction

 --------------------------------------------------------------
             Orbital Energies (a.u.) and Symmetries
 --------------------------------------------------------------

 Alpha MOs, Restricted
 -- Occupied --                  
-15.658 -11.292  -1.293  -0.729  -0.614  -0.525  -0.492
  1 A'    2 A'    3 A'    4 A'    5 A'    1 A"    6 A'                         
 -- Virtual --                   
  0.091   0.163   0.171   0.354   0.466   0.587   0.603   0.706
  7 A'    2 A"    8 A'    9 A'   10 A'    3 A"   11 A'   12 A'                 
  0.765   0.857   0.859   0.986   1.242   1.259   1.451   1.624
 13 A'    4 A"   14 A'   15 A'   16 A'    5 A"   17 A'    6 A"                 
  1.723   1.930   2.058   2.196   2.315   2.396   2.611   2.721
 18 A'   19 A'    7 A"   20 A'    8 A"   21 A'   22 A'   23 A'                 
  2.784   2.953   3.129   3.168   3.399   3.668   4.189   4.254
  9 A"   24 A'   10 A"   25 A'   26 A'   27 A'   11 A"   28 A'                 
  4.776  25.088  36.914
 29 A'   30 A'   31 A'                                                         

 Beta MOs, Restricted
 -- Occupied --                  
-15.658 -11.292  -1.293  -0.729  -0.614  -0.525  -0.492
  1 A'    2 A'    3 A'    4 A'    5 A'    1 A"    6 A'                         
 -- Virtual --                   
  0.091   0.163   0.171   0.354   0.466   0.587   0.603   0.706
  7 A'    2 A"    8 A'    9 A'   10 A'    3 A"   11 A'   12 A'                 
  0.765   0.857   0.859   0.986   1.242   1.259   1.451   1.624
 13 A'    4 A"   14 A'   15 A'   16 A'    5 A"   17 A'    6 A"                 
  1.723   1.930   2.058   2.196   2.315   2.396   2.611   2.721
 18 A'   19 A'    7 A"   20 A'    8 A"   21 A'   22 A'   23 A'                 
  2.784   2.953   3.129   3.168   3.399   3.668   4.189   4.254
  9 A"   24 A'   10 A"   25 A'   26 A'   27 A'   11 A"   28 A'                 
  4.776  25.088  36.914
 29 A'   30 A'   31 A'                                                         
 --------------------------------------------------------------

          Ground-State Mulliken Net Atomic Charges

     Atom                 Charge (a.u.)
  ----------------------------------------
      1 C                    -0.113223
      2 H                     0.214946
      3 N                    -0.101723
  ----------------------------------------
  Sum of atomic charges =    -0.000000

 -----------------------------------------------------------------
                    Cartesian Multipole Moments
 -----------------------------------------------------------------
    Charge (ESU x 10^10)
                -0.0000
    Dipole Moment (Debye)
         X       0.5689      Y       1.1451      Z       0.0000
       Tot       1.2786
    Quadrupole Moments (Debye-Ang)
        XX     -13.8324     XY       0.8395     YY     -10.0061
        XZ       0.0000     YZ      -0.0000     ZZ     -12.1706
    Octopole Moments (Debye-Ang^2)
       XXX      -1.8968    XXY       0.6015    XYY       0.0668
       YYY       2.8582    XXZ       0.0000    XYZ      -0.0000
       YYZ       0.0000    XZZ      -0.6923    YZZ       0.4997
       ZZZ       0.0000
    Hexadecapole Moments (Debye-Ang^3)
      XXXX     -43.2280   XXXY       1.0606   XXYY      -8.7546
      XYYY       1.6786   YYYY     -13.1987   XXXZ       0.0000
      XXYZ      -0.0000   XYYZ       0.0000   YYYZ      -0.0000
      XXZZ      -8.7722   XYZZ       0.2570   YYZZ      -4.5594
      XZZZ       0.0000   YZZZ      -0.0000   ZZZZ     -12.1590
 -----------------------------------------------------------------
 DrvMan is completing analytic gradient of the MP2 energy
 MP2 relaxed dipole moment
            1
    1   0.2238098
    2   0.4505142
    3   0.0000000
	Magnitude:	 0.503 au	 1.279 Debye
 MP2 energy read as -93.152717
 Full Analytical Gradient of MP2 Energy (in au.)
             1             2             3
    1    0.04135718   -0.01380819   -0.02754900
    2    0.00293573   -0.02024529    0.01730956
    3   -0.00000000    0.00000000   -0.00000000
 Gradient time:  CPU 0.00 s  wall 0.00 s
 Geometry Optimization Parameters
   NAtoms,    NIC,     NZ,  NCons,   NDum,   NFix, NCnnct, MaxDiis
        3       9       3       1       0       0       0       0

 Cartesian Hessian Update
 Hessian Updated using BFGS Update


** CONSTRAINED OPTIMIZATION IN CARTESIAN COORDINATES **
   Searching for a Minimum

   Optimization Cycle:   2

                       Coordinates (Angstroms)
     ATOM                X               Y               Z
      1  C         0.5941127793   -0.1653203015    0.0000000000
      2  H         0.5376604098    0.9495114692    0.0000000000
      3  N        -0.5976776760   -0.0167495155    0.0000000000
   Point Group: cs    Number of degrees of freedom:     3


   Energy is    -93.152716973

              Constraints and their Current Values
                                        Value     Constraint
   Angle:           3   1   2           79.995       80.000

   Using Lagrange Multiplier Algorithm


 Translations and Rotations Projected Out of Hessian

  4 Hessian modes will be used to form the next step
  Hessian Eigenvalues:
    -0.489895    0.547330    1.302556    2.162819

 Minimum Search - Taking P-RFO Step
 Searching for Lamda that Maximizes Along the Constraint modes Only
 Value Taken    Lamda =   0.00066644
 Searching for Lamda that Minimizes Along All other modes
 Value Taken    Lamda =  -0.00299667
 Step Taken.  Stepsize is  0.072224

                             Maximum     Tolerance    Cnvgd?
         Gradient           0.044431      0.000300      NO
         Displacement       0.045935      0.001200      NO
         Energy change     -0.003631      0.000001      NO

 ----------------------------------------------------------------
             Standard Nuclear Orientation (Angstroms)
    I     Atom           X                Y                Z
 ----------------------------------------------------------------
    1      C       0.5833177891    -0.1815450394     0.0000000000
    2      H       0.5391716921     0.9692418045     0.0000000000
    3      N      -0.5883939682    -0.0202551130     0.0000000000
 ----------------------------------------------------------------
 Molecular Point Group                 Cs    NOp =  2
 Largest Abelian Subgroup              Cs    NOp =  2
 Nuclear Repulsion Energy =    24.0173812448 hartrees
 There are        7 alpha and        7 beta electrons
 Applying Cartesian multipole field
    Component          Value
    ---------          -----
     (2,0,0)        1.00000E-10
     (0,2,0)        2.00000E-10
     (0,0,2)       -3.00000E-10
 Nucleus-field energy     =     0.0000000025 hartrees
 Requested basis set is 6-311G(d,p)
 There are 14 shells and 42 basis functions
 A cutoff of  1.0D-11 yielded    105 shell pairs
 There are       962 function pairs (      1059 Cartesian)
 Smallest overlap matrix eigenvalue = 6.08E-03
 Guess MOs from SCF MO coefficient file
Reading MOs from coefficient file
Reading MOs from coefficient file
 A restricted Hartree-Fock SCF calculation will be
 performed using Pulay DIIS extrapolation
 SCF converges when DIIS error is below 1.0E-08
Geometry optimization detected.  Setting ReadMinima to 0
Setting SaveMinima to 0
 ---------------------------------------
  Cycle       Energy         DIIS Error
 ---------------------------------------
    1     -92.8269454231      4.44E-03
    2     -92.8201329662      4.31E-04
    3     -92.8202017621      2.26E-04
    4     -92.8202162987      1.09E-04
    5     -92.8202227568      4.84E-05
    6     -92.8202248721      1.96E-05
    7     -92.8202253199      5.54E-06
    8     -92.8202253568      1.72E-06
    9     -92.8202253601      5.37E-07
   10     -92.8202253604      2.43E-07
   11     -92.8202253604      6.73E-08
   12     -92.8202253605      1.35E-08
   13     -92.8202253605      6.41E-09 Convergence criterion met
 ---------------------------------------
 SCF time:  CPU 0.34 s  wall 0.34 s
 SCF   energy in the final basis set = -92.8202253605
 Total energy in the final basis set = -92.8202253605

 Components of the MP2 correlation energy:
        aaaa  correlation energy =        -0.0398195752 au
        abab  correlation energy =        -0.2537728139 au
        bbbb  correlation energy =        -0.0398195752 au
        non-Brillouin singles    =        -0.0000000000 au

 Total  MP2   correlation energy =        -0.3334119642 au
        MP2         total energy =       -93.1536373247 au

  Entering Z-vector solver.
OV_DIM:  Setting MaxSz  = 245
OV_DIM:  Setting MaxSpc = 245
   1         0           1      0.001781    0.001781
   2         0           1      0.000984    0.000984
   3         0           1      0.000438    0.000438
   4         0           1      0.000104    0.000104
   5         0           1      0.000028    0.000028
   6         0           1      0.000007    0.000007
   7         0           1      0.000003    0.000003
   8         1           0      0.000000    0.000000    Roots Converged
 Analysis of SCF Wavefunction

 --------------------------------------------------------------
             Orbital Energies (a.u.) and Symmetries
 --------------------------------------------------------------

 Alpha MOs, Restricted
 -- Occupied --                  
-15.652 -11.288  -1.298  -0.719  -0.616  -0.529  -0.493
  1 A'    2 A'    3 A'    4 A'    5 A'    1 A"    6 A'                         
 -- Virtual --                   
  0.092   0.170   0.172   0.353   0.462   0.585   0.598   0.710
  7 A'    2 A"    8 A'    9 A'   10 A'    3 A"   11 A'   12 A'                 
  0.755   0.861   0.862   1.007   1.252   1.253   1.462   1.637
 13 A'    4 A"   14 A'   15 A'   16 A'    5 A"   17 A'    6 A"                 
  1.704   1.920   2.030   2.209   2.323   2.401   2.599   2.696
 18 A'   19 A'    7 A"   20 A'    8 A"   21 A'   22 A'   23 A'                 
  2.804   2.969   3.130   3.192   3.377   3.654   4.200   4.258
  9 A"   24 A'   10 A"   25 A'   26 A'   27 A'   11 A"   28 A'                 
  4.798  25.086  36.953
 29 A'   30 A'   31 A'                                                         

 Beta MOs, Restricted
 -- Occupied --                  
-15.652 -11.288  -1.298  -0.719  -0.616  -0.529  -0.493
  1 A'    2 A'    3 A'    4 A'    5 A'    1 A"    6 A'                         
 -- Virtual --                   
  0.092   0.170   0.172   0.353   0.462   0.585   0.598   0.710
  7 A'    2 A"    8 A'    9 A'   10 A'    3 A"   11 A'   12 A'                 
  0.755   0.861   0.862   1.007   1.252   1.253   1.462   1.637
 13 A'    4 A"   14 A'   15 A'   16 A'    5 A"   17 A'    6 A"                 
  1.704   1.920   2.030   2.209   2.323   2.401   2.599   2.696
 18 A'   19 A'    7 A"   20 A'    8 A"   21 A'   22 A'   23 A'                 
  2.804   2.969   3.130   3.192   3.377   3.654   4.200   4.258
  9 A"   24 A'   10 A"   25 A'   26 A'   27 A'   11 A"   28 A'                 
  4.798  25.086  36.953
 29 A'   30 A'   31 A'                                                         
 --------------------------------------------------------------

          Ground-State Mulliken Net Atomic Charges

     Atom                 Charge (a.u.)
  ----------------------------------------
      1 C                    -0.113145
      2 H                     0.221001
      3 N                    -0.107856
  ----------------------------------------
  Sum of atomic charges =     0.000000

 -----------------------------------------------------------------
                    Cartesian Multipole Moments
 -----------------------------------------------------------------
    Charge (ESU x 10^10)
                 0.0000
    Dipole Moment (Debye)
         X       0.5807      Y       1.2232      Z       0.0000
       Tot       1.3541
    Quadrupole Moments (Debye-Ang)
        XX     -13.8705     XY       0.9328     YY      -9.9146
        XZ       0.0000     YZ      -0.0000     ZZ     -12.1554
    Octopole Moments (Debye-Ang^2)
       XXX      -1.9470    XXY       0.7618    XYY       0.1017
       YYY       3.2593    XXZ       0.0000    XYZ      -0.0000
       YYZ       0.0000    XZZ      -0.6926    YZZ       0.5870
       ZZZ       0.0000
    Hexadecapole Moments (Debye-Ang^3)
      XXXX     -42.5598   XXXY       1.2355   XXYY      -8.6947
      XYYY       1.8786   YYYY     -13.3853   XXXZ       0.0000
      XXYZ      -0.0000   XYYZ       0.0000   YYYZ      -0.0000
      XXZZ      -8.6590   XYZZ       0.2912   YYZZ      -4.6174
      XZZZ       0.0000   YZZZ      -0.0000   ZZZZ     -12.1175
 -----------------------------------------------------------------
 DrvMan is completing analytic gradient of the MP2 energy
 MP2 relaxed dipole moment
            1
    1   0.2284521
    2   0.4812611
    3   0.0000000
	Magnitude:	 0.533 au	 1.354 Debye
 MP2 energy read as -93.153637
 Full Analytical Gradient of MP2 Energy (in au.)
             1             2             3
    1    0.00123948   -0.01206767    0.01082820
    2   -0.01145911    0.00114615    0.01031296
    3    0.00000000    0.00000000   -0.00000000
 Gradient time:  CPU 0.00 s  wall 0.00 s
 Geometry Optimization Parameters
   NAtoms,    NIC,     NZ,  NCons,   NDum,   NFix, NCnnct, MaxDiis
        3       9       3       1       0       0       0       0

 Cartesian Hessian Update
 Hessian Updated using BFGS Update


** CONSTRAINED OPTIMIZATION IN CARTESIAN COORDINATES **
   Searching for a Minimum

   Optimization Cycle:   3

                       Coordinates (Angstroms)
     ATOM                X               Y               Z
      1  C         0.5833177891   -0.1815450394    0.0000000000
      2  H         0.5391716921    0.9692418045    0.0000000000
      3  N        -0.5883939682   -0.0202551130    0.0000000000
   Point Group: cs    Number of degrees of freedom:     3


   Energy is    -93.153637325

              Constraints and their Current Values
                                        Value     Constraint
   Angle:           3   1   2           79.965       80.000

   Using Lagrange Multiplier Algorithm


 Translations and Rotations Projected Out of Hessian

  4 Hessian modes will be used to form the next step
  Hessian Eigenvalues:
    -0.491319    0.595433    1.233420    2.571753

 Minimum Search - Taking P-RFO Step
 Searching for Lamda that Maximizes Along the Constraint modes Only
 Value Taken    Lamda =   0.00007635
 Searching for Lamda that Minimizes Along All other modes
 Value Taken    Lamda =  -0.00014226
 Step Taken.  Stepsize is  0.015014

                             Maximum     Tolerance    Cnvgd?
         Gradient           0.014129      0.000300      NO
         Displacement       0.013210      0.001200      NO
         Energy change     -0.000920      0.000001      NO

 ----------------------------------------------------------------
             Standard Nuclear Orientation (Angstroms)
    I     Atom           X                Y                Z
 ----------------------------------------------------------------
    1      C       0.5852444444    -0.1800456613     0.0000000000
    2      H       0.5397243421     0.9678931082     0.0000000000
    3      N      -0.5908732736    -0.0204057948     0.0000000000
 ----------------------------------------------------------------
 Molecular Point Group                 Cs    NOp =  2
 Largest Abelian Subgroup              Cs    NOp =  2
 Nuclear Repulsion Energy =    23.9560550346 hartrees
 There are        7 alpha and        7 beta electrons
 Applying Cartesian multipole field
    Component          Value
    ---------          -----
     (2,0,0)        1.00000E-10
     (0,2,0)        2.00000E-10
     (0,0,2)       -3.00000E-10
 Nucleus-field energy     =     0.0000000025 hartrees
 Requested basis set is 6-311G(d,p)
 There are 14 shells and 42 basis functions
 A cutoff of  1.0D-11 yielded    105 shell pairs
 There are       962 function pairs (      1059 Cartesian)
 Smallest overlap matrix eigenvalue = 6.15E-03
 Guess MOs from SCF MO coefficient file
Reading MOs from coefficient file
Reading MOs from coefficient file
 A restricted Hartree-Fock SCF calculation will be
 performed using Pulay DIIS extrapolation
 SCF converges when DIIS error is below 1.0E-08
Geometry optimization detected.  Setting ReadMinima to 0
Setting SaveMinima to 0
 ---------------------------------------
  Cycle       Energy         DIIS Error
 ---------------------------------------
    1     -92.8158681926      8.35E-04
    2     -92.8198527174      8.93E-05
    3     -92.8198551044      5.09E-05
    4     -92.8198557066      1.99E-05
    5     -92.8198559277      9.92E-06
    6     -92.8198560251      3.87E-06
    7     -92.8198560436      9.90E-07
    8     -92.8198560448      3.00E-07
    9     -92.8198560449      1.21E-07
   10     -92.8198560449      4.30E-08
   11     -92.8198560449      1.09E-08
   12     -92.8198560449      6.16E-09 Convergence criterion met
 ---------------------------------------
 SCF time:  CPU 0.34 s  wall 0.34 s
 SCF   energy in the final basis set = -92.8198560449
 Total energy in the final basis set = -92.8198560449

 Components of the MP2 correlation energy:
        aaaa  correlation energy =        -0.0398720309 au
        abab  correlation energy =        -0.2540946730 au
        bbbb  correlation energy =        -0.0398720309 au
        non-Brillouin singles    =        -0.0000000000 au

 Total  MP2   correlation energy =        -0.3338387348 au
        MP2         total energy =       -93.1536947796 au

  Entering Z-vector solver.
OV_DIM:  Setting MaxSz  = 245
OV_DIM:  Setting MaxSpc = 245
   1         0           1      0.001814    0.001814
   2         0           1      0.001005    0.001005
   3         0           1      0.000448    0.000448
   4         0           1      0.000106    0.000106
   5         0           1      0.000029    0.000029
   6         0           1      0.000008    0.000008
   7         0           1      0.000003    0.000003
   8         0           1      0.000001    0.000001
   9         1           0      0.000000    0.000000    Roots Converged
 Analysis of SCF Wavefunction

 --------------------------------------------------------------
             Orbital Energies (a.u.) and Symmetries
 --------------------------------------------------------------

 Alpha MOs, Restricted
 -- Occupied --                  
-15.653 -11.289  -1.296  -0.720  -0.615  -0.528  -0.493
  1 A'    2 A'    3 A'    4 A'    5 A'    1 A"    6 A'                         
 -- Virtual --                   
  0.091   0.169   0.172   0.353   0.463   0.586   0.599   0.709
  7 A'    2 A"    8 A'    9 A'   10 A'    3 A"   11 A'   12 A'                 
  0.756   0.860   0.861   1.002   1.250   1.254   1.460   1.634
 13 A'    4 A"   14 A'   15 A'   16 A'    5 A"   17 A'    6 A"                 
  1.706   1.921   2.032   2.205   2.321   2.399   2.600   2.696
 18 A'   19 A'    7 A"   20 A'    8 A"   21 A'   22 A'   23 A'                 
  2.799   2.966   3.129   3.186   3.381   3.654   4.198   4.256
  9 A"   24 A'   10 A"   25 A'   26 A'   27 A'   11 A"   28 A'                 
  4.793  25.080  36.944
 29 A'   30 A'   31 A'                                                         

 Beta MOs, Restricted
 -- Occupied --                  
-15.653 -11.289  -1.296  -0.720  -0.615  -0.528  -0.493
  1 A'    2 A'    3 A'    4 A'    5 A'    1 A"    6 A'                         
 -- Virtual --                   
  0.091   0.169   0.172   0.353   0.463   0.586   0.599   0.709
  7 A'    2 A"    8 A'    9 A'   10 A'    3 A"   11 A'   12 A'                 
  0.756   0.860   0.861   1.002   1.250   1.254   1.460   1.634
 13 A'    4 A"   14 A'   15 A'   16 A'    5 A"   17 A'    6 A"                 
  1.706   1.921   2.032   2.205   2.321   2.399   2.600   2.696
 18 A'   19 A'    7 A"   20 A'    8 A"   21 A'   22 A'   23 A'                 
  2.799   2.966   3.129   3.186   3.381   3.654   4.198   4.256
  9 A"   24 A'   10 A"   25 A'   26 A'   27 A'   11 A"   28 A'                 
  4.793  25.080  36.944
 29 A'   30 A'   31 A'                                                         
 --------------------------------------------------------------

          Ground-State Mulliken Net Atomic Charges

     Atom                 Charge (a.u.)
  ----------------------------------------
      1 C                    -0.113421
      2 H                     0.220729
      3 N                    -0.107309
  ----------------------------------------
  Sum of atomic charges =     0.000000

 -----------------------------------------------------------------
                    Cartesian Multipole Moments
 -----------------------------------------------------------------
    Charge (ESU x 10^10)
                -0.0000
    Dipole Moment (Debye)
         X       0.5817      Y       1.2155      Z       0.0000
       Tot       1.3475
    Quadrupole Moments (Debye-Ang)
        XX     -13.8690     XY       0.9211     YY      -9.9275
        XZ       0.0000     YZ      -0.0000     ZZ     -12.1652
    Octopole Moments (Debye-Ang^2)
       XXX      -1.9274    XXY       0.7501    XYY       0.1048
       YYY       3.2299    XXZ       0.0000    XYZ      -0.0000
       YYZ       0.0000    XZZ      -0.6907    YZZ       0.5817
       ZZZ       0.0000
    Hexadecapole Moments (Debye-Ang^3)
      XXXX     -42.7371   XXXY       1.2091   XXYY      -8.7175
      XYYY       1.8550   YYYY     -13.3793   XXXZ       0.0000
      XXYZ      -0.0000   XYYZ       0.0000   YYYZ      -0.0000
      XXZZ      -8.6906   XYZZ       0.2858   YYZZ      -4.6173
      XZZZ       0.0000   YZZZ      -0.0000   ZZZZ     -12.1376
 -----------------------------------------------------------------
 DrvMan is completing analytic gradient of the MP2 energy
 MP2 relaxed dipole moment
            1
    1   0.2288486
    2   0.4782302
    3   0.0000000
	Magnitude:	 0.530 au	 1.348 Debye
 MP2 energy read as -93.153695
 Full Analytical Gradient of MP2 Energy (in au.)
             1             2             3
    1    0.01031168   -0.01213721    0.00182554
    2   -0.01122435   -0.00038918    0.01161353
    3    0.00000000    0.00000000   -0.00000000
 Gradient time:  CPU 0.00 s  wall 0.00 s
 Geometry Optimization Parameters
   NAtoms,    NIC,     NZ,  NCons,   NDum,   NFix, NCnnct, MaxDiis
        3       9       3       1       0       0       0       0

 Cartesian Hessian Update
 Hessian Updated using BFGS Update


** CONSTRAINED OPTIMIZATION IN CARTESIAN COORDINATES **
   Searching for a Minimum

   Optimization Cycle:   4

                       Coordinates (Angstroms)
     ATOM                X               Y               Z
      1  C         0.5852444444   -0.1800456613    0.0000000000
      2  H         0.5397243421    0.9678931082    0.0000000000
      3  N        -0.5908732736   -0.0204057948    0.0000000000
   Point Group: cs    Number of degrees of freedom:     3


   Energy is    -93.153694780

              Constraints and their Current Values
                                        Value     Constraint
   Angle:           3   1   2           79.999       80.000

   Using Lagrange Multiplier Algorithm


 Translations and Rotations Projected Out of Hessian

  4 Hessian modes will be used to form the next step
  Hessian Eigenvalues:
    -0.488570    0.595128    1.166967    2.699644

 Minimum Search - Taking P-RFO Step
 Searching for Lamda that Maximizes Along the Constraint modes Only
 Value Taken    Lamda =   0.00000034
 Searching for Lamda that Minimizes Along All other modes
 Value Taken    Lamda =  -0.00000044
 Step Taken.  Stepsize is  0.001042

                             Maximum     Tolerance    Cnvgd?
         Gradient           0.000471      0.000300      NO
         Displacement       0.001009      0.001200     YES
         Energy change     -0.000057      0.000001      NO

 ----------------------------------------------------------------
             Standard Nuclear Orientation (Angstroms)
    I     Atom           X                Y                Z
 ----------------------------------------------------------------
    1      C       0.5853040824    -0.1799747989     0.0000000000
    2      H       0.5397266785     0.9678130142     0.0000000000
    3      N      -0.5909352479    -0.0203965632     0.0000000000
 ----------------------------------------------------------------
 Molecular Point Group                 Cs    NOp =  2
 Largest Abelian Subgroup              Cs    NOp =  2
 Nuclear Repulsion Energy =    23.9546591903 hartrees
 There are        7 alpha and        7 beta electrons
 Applying Cartesian multipole field
    Component          Value
    ---------          -----
     (2,0,0)        1.00000E-10
     (0,2,0)        2.00000E-10
     (0,0,2)       -3.00000E-10
 Nucleus-field energy     =     0.0000000025 hartrees
 Requested basis set is 6-311G(d,p)
 There are 14 shells and 42 basis functions
 A cutoff of  1.0D-11 yielded    105 shell pairs
 There are       962 function pairs (      1059 Cartesian)
 Smallest overlap matrix eigenvalue = 6.16E-03
 Guess MOs from SCF MO coefficient file
Reading MOs from coefficient file
Reading MOs from coefficient file
 A restricted Hartree-Fock SCF calculation will be
 performed using Pulay DIIS extrapolation
 SCF converges when DIIS error is below 1.0E-08
Geometry optimization detected.  Setting ReadMinima to 0
Setting SaveMinima to 0
 ---------------------------------------
  Cycle       Energy         DIIS Error
 ---------------------------------------
    1     -92.8197710145      2.46E-05
    2     -92.8198447756      2.46E-06
    3     -92.8198447777      1.39E-06
    4     -92.8198447781      6.01E-07
    5     -92.8198447783      2.78E-07
    6     -92.8198447784      1.12E-07
    7     -92.8198447784      3.06E-08
    8     -92.8198447784      9.10E-09 Convergence criterion met
 ---------------------------------------
 SCF time:  CPU 0.24 s  wall 0.24 s
 SCF   energy in the final basis set = -92.8198447784
 Total energy in the final basis set = -92.8198447784

 Components of the MP2 correlation energy:
        aaaa  correlation energy =        -0.0398735226 au
        abab  correlation energy =        -0.2541032736 au
        bbbb  correlation energy =        -0.0398735226 au
        non-Brillouin singles    =        -0.0000000000 au

 Total  MP2   correlation energy =        -0.3338503189 au
        MP2         total energy =       -93.1536950973 au

  Entering Z-vector solver.
OV_DIM:  Setting MaxSz  = 245
OV_DIM:  Setting MaxSpc = 245
   1         0           1      0.001815    0.001815
   2         0           1      0.001005    0.001005
   3         0           1      0.000448    0.000448
   4         0           1      0.000106    0.000106
   5         0           1      0.000029    0.000029
   6         0           1      0.000008    0.000008
   7         0           1      0.000003    0.000003
   8         0           1      0.000001    0.000001
   9         1           0      0.000000    0.000000    Roots Converged
 Analysis of SCF Wavefunction

 --------------------------------------------------------------
             Orbital Energies (a.u.) and Symmetries
 --------------------------------------------------------------

 Alpha MOs, Restricted
 -- Occupied --                  
-15.653 -11.289  -1.296  -0.720  -0.615  -0.528  -0.493
  1 A'    2 A'    3 A'    4 A'    5 A'    1 A"    6 A'                         
 -- Virtual --                   
  0.091   0.169   0.172   0.353   0.463   0.586   0.599   0.709
  7 A'    2 A"    8 A'    9 A'   10 A'    3 A"   11 A'   12 A'                 
  0.756   0.860   0.861   1.002   1.250   1.254   1.460   1.634
 13 A'    4 A"   14 A'   15 A'   16 A'    5 A"   17 A'    6 A"                 
  1.706   1.921   2.032   2.205   2.321   2.399   2.600   2.696
 18 A'   19 A'    7 A"   20 A'    8 A"   21 A'   22 A'   23 A'                 
  2.799   2.966   3.129   3.186   3.381   3.654   4.198   4.256
  9 A"   24 A'   10 A"   25 A'   26 A'   27 A'   11 A"   28 A'                 
  4.793  25.080  36.943
 29 A'   30 A'   31 A'                                                         

 Beta MOs, Restricted
 -- Occupied --                  
-15.653 -11.289  -1.296  -0.720  -0.615  -0.528  -0.493
  1 A'    2 A'    3 A'    4 A'    5 A'    1 A"    6 A'                         
 -- Virtual --                   
  0.091   0.169   0.172   0.353   0.463   0.586   0.599   0.709
  7 A'    2 A"    8 A'    9 A'   10 A'    3 A"   11 A'   12 A'                 
  0.756   0.860   0.861   1.002   1.250   1.254   1.460   1.634
 13 A'    4 A"   14 A'   15 A'   16 A'    5 A"   17 A'    6 A"                 
  1.706   1.921   2.032   2.205   2.321   2.399   2.600   2.696
 18 A'   19 A'    7 A"   20 A'    8 A"   21 A'   22 A'   23 A'                 
  2.799   2.966   3.129   3.186   3.381   3.654   4.198   4.256
  9 A"   24 A'   10 A"   25 A'   26 A'   27 A'   11 A"   28 A'                 
  4.793  25.080  36.943
 29 A'   30 A'   31 A'                                                         
 --------------------------------------------------------------

          Ground-State Mulliken Net Atomic Charges

     Atom                 Charge (a.u.)
  ----------------------------------------
      1 C                    -0.113425
      2 H                     0.220707
      3 N                    -0.107282
  ----------------------------------------
  Sum of atomic charges =    -0.000000

 -----------------------------------------------------------------
                    Cartesian Multipole Moments
 -----------------------------------------------------------------
    Charge (ESU x 10^10)
                -0.0000
    Dipole Moment (Debye)
         X       0.5816      Y       1.2152      Z       0.0000
       Tot       1.3472
    Quadrupole Moments (Debye-Ang)
        XX     -13.8689     XY       0.9206     YY      -9.9280
        XZ       0.0000     YZ      -0.0000     ZZ     -12.1654
    Octopole Moments (Debye-Ang^2)
       XXX      -1.9270    XXY       0.7494    XYY       0.1047
       YYY       3.2282    XXZ       0.0000    XYZ       0.0000
       YYZ       0.0000    XZZ      -0.6907    YZZ       0.5814
       ZZZ       0.0000
    Hexadecapole Moments (Debye-Ang^3)
      XXXX     -42.7416   XXXY       1.2082   XXYY      -8.7180
      XYYY       1.8540   YYYY     -13.3786   XXXZ       0.0000
      XXYZ      -0.0000   XYYZ       0.0000   YYYZ      -0.0000
      XXZZ      -8.6913   XYZZ       0.2857   YYZZ      -4.6171
      XZZZ      -0.0000   YZZZ      -0.0000   ZZZZ     -12.1380
 -----------------------------------------------------------------
 DrvMan is completing analytic gradient of the MP2 energy
 MP2 relaxed dipole moment
            1
    1   0.2288385
    2   0.4780930
    3   0.0000000
	Magnitude:	 0.530 au	 1.347 Debye
 MP2 energy read as -93.153695
 Full Analytical Gradient of MP2 Energy (in au.)
             1             2             3
    1    0.01055996   -0.01214401    0.00158405
    2   -0.01118143   -0.00047208    0.01165351
    3    0.00000000    0.00000000   -0.00000000
 Gradient time:  CPU 0.00 s  wall 0.00 s
 Geometry Optimization Parameters
   NAtoms,    NIC,     NZ,  NCons,   NDum,   NFix, NCnnct, MaxDiis
        3       9       3       1       0       0       0       0

 Cartesian Hessian Update
 Hessian Updated using BFGS Update


** CONSTRAINED OPTIMIZATION IN CARTESIAN COORDINATES **
   Searching for a Minimum

   Optimization Cycle:   5

                       Coordinates (Angstroms)
     ATOM                X               Y               Z
      1  C         0.5853040824   -0.1799747989    0.0000000000
      2  H         0.5397266785    0.9678130142    0.0000000000
      3  N        -0.5909352479   -0.0203965632    0.0000000000
   Point Group: cs    Number of degrees of freedom:     3


   Energy is    -93.153695097

              Constraints and their Current Values
                                        Value     Constraint
   Angle:           3   1   2           80.000       80.000

   Using Lagrange Multiplier Algorithm


 Translations and Rotations Projected Out of Hessian

  4 Hessian modes will be used to form the next step
  Hessian Eigenvalues:
    -0.489174    0.574031    1.193762    2.683202

 Minimum Search - Taking P-RFO Step
 Searching for Lamda that Maximizes Along the Constraint modes Only
 Value Taken    Lamda =   0.00000000
 Searching for Lamda that Minimizes Along All other modes
 Value Taken    Lamda =   0.00000000
 Step Taken.  Stepsize is  0.000026

                             Maximum     Tolerance    Cnvgd?
         Gradient           0.000010      0.000300     YES
         Displacement       0.000018      0.001200     YES
         Energy change     -0.000000      0.000001     YES


                       Distance Matrix (Angstroms)
             C (  1)   H (  2)
   H (  2)  1.148692
   N (  3)  1.187015  1.501651

 Final energy is   -93.153695097295639     


 ******************************
 **  OPTIMIZATION CONVERGED  **
 ******************************

Z-matrix Print:
$molecule
0 1
C 
H  1 1.148692
N  1 1.187015 2 79.999999
$end

 Analysis of SCF Wavefunction

 --------------------------------------------------------------
             Orbital Energies (a.u.) and Symmetries
 --------------------------------------------------------------

 Alpha MOs, Restricted
 -- Occupied --                  
-15.653 -11.289  -1.296  -0.720  -0.615  -0.528  -0.493
  1 A'    2 A'    3 A'    4 A'    5 A'    1 A"    6 A'                         
 -- Virtual --                   
  0.091   0.169   0.172   0.353   0.463   0.586   0.599   0.709
  7 A'    2 A"    8 A'    9 A'   10 A'    3 A"   11 A'   12 A'                 
  0.756   0.860   0.861   1.002   1.250   1.254   1.460   1.634
 13 A'    4 A"   14 A'   15 A'   16 A'    5 A"   17 A'    6 A"                 
  1.706   1.921   2.032   2.205   2.321   2.399   2.600   2.696
 18 A'   19 A'    7 A"   20 A'    8 A"   21 A'   22 A'   23 A'                 
  2.799   2.966   3.129   3.186   3.381   3.654   4.198   4.256
  9 A"   24 A'   10 A"   25 A'   26 A'   27 A'   11 A"   28 A'                 
  4.793  25.080  36.943
 29 A'   30 A'   31 A'                                                         

 Beta MOs, Restricted
 -- Occupied --                  
-15.653 -11.289  -1.296  -0.720  -0.615  -0.528  -0.493
  1 A'    2 A'    3 A'    4 A'    5 A'    1 A"    6 A'                         
 -- Virtual --                   
  0.091   0.169   0.172   0.353   0.463   0.586   0.599   0.709
  7 A'    2 A"    8 A'    9 A'   10 A'    3 A"   11 A'   12 A'                 
  0.756   0.860   0.861   1.002   1.250   1.254   1.460   1.634
 13 A'    4 A"   14 A'   15 A'   16 A'    5 A"   17 A'    6 A"                 
  1.706   1.921   2.032   2.205   2.321   2.399   2.600   2.696
 18 A'   19 A'    7 A"   20 A'    8 A"   21 A'   22 A'   23 A'                 
  2.799   2.966   3.129   3.186   3.381   3.654   4.198   4.256
  9 A"   24 A'   10 A"   25 A'   26 A'   27 A'   11 A"   28 A'                 
  4.793  25.080  36.943
 29 A'   30 A'   31 A'                                                         
 --------------------------------------------------------------

          Ground-State Mulliken Net Atomic Charges

     Atom                 Charge (a.u.)
  ----------------------------------------
      1 C                    -0.113425
      2 H                     0.220707
      3 N                    -0.107282
  ----------------------------------------
  Sum of atomic charges =    -0.000000

 -----------------------------------------------------------------
                    Cartesian Multipole Moments
 -----------------------------------------------------------------
    Charge (ESU x 10^10)
                -0.0000
    Dipole Moment (Debye)
         X       0.5816      Y       1.2152      Z       0.0000
       Tot       1.3472
    Quadrupole Moments (Debye-Ang)
        XX     -13.8689     XY       0.9206     YY      -9.9280
        XZ       0.0000     YZ      -0.0000     ZZ     -12.1654
    Octopole Moments (Debye-Ang^2)
       XXX      -1.9270    XXY       0.7494    XYY       0.1047
       YYY       3.2282    XXZ       0.0000    XYZ       0.0000
       YYZ       0.0000    XZZ      -0.6907    YZZ       0.5814
       ZZZ       0.0000
    Hexadecapole Moments (Debye-Ang^3)
      XXXX     -42.7416   XXXY       1.2082   XXYY      -8.7180
      XYYY       1.8540   YYYY     -13.3786   XXXZ       0.0000
      XXYZ      -0.0000   XYYZ       0.0000   YYYZ      -0.0000
      XXZZ      -8.6913   XYZZ       0.2857   YYZZ      -4.6171
      XZZZ      -0.0000   YZZZ      -0.0000   ZZZZ     -12.1380
 -----------------------------------------------------------------
Archival summary:
1\1\Deborahs-MacBook-Air.local\OPT\MP2\6-311G**\111\TueMay612:59:362014TueMay612:59:362014\0\\#,OPT,MP2,6-311G**,\\0,1\C\H,1,1.14869\N,1,1.18701,2,80\\HF=-92.8198448\MP2=-93.1536951\\@

 Total job time:  7.20s(wall), 7.12s(cpu) 
 Tue May  6 12:59:36 2014

        *************************************************************
        *                                                           *
        *  Thank you very much for using Q-Chem.  Have a nice day.  *
        *                                                           *
        *************************************************************


 
User input: 2 of 16 
 
/Users/Deb/Programs/trunk/build/qcprog.exe .hcn_hnc_fine.inp.27751.qcin.2 /tmp/qchem27751/

                  Welcome to Q-Chem
     A Quantum Leap Into The Future Of Chemistry

 Y. Shao, L. Fusti-Molnar, Y. Jung, J. Kussmann, C. Ochsenfeld, S. T. Brown, 
 A. T. B. Gilbert, L. V. Slipchenko, S. V. Levchenko, D. P. O'Neill, 
 R. A. DiStasio Jr., R. C. Lochan, T. Wang, G. J. O. Beran, N. A. Besley, 
 J. M. Herbert, C. Y. Lin, T. Van Voorhis, S. H. Chien, A. Sodt, R. P. Steele, 
 V. A. Rassolov, P. E. Maslen, P. P. Korambath, R. D. Adamson, B. Austin, 
 J. Baker, E. F. C. Byrd, H. Dachsel, R. J. Doerksen, A. Dreuw, B. D. Dunietz, 
 A. D. Dutoi, T. R. Furlani, S. R. Gwaltney, A. Heyden, S. Hirata, C.-P. Hsu, 
 G. Kedziora, R. Z. Khaliullin, P. Klunzinger, A. M. Lee, M. S. Lee, W. Liang, 
 I. Lotan, N. Nair, B. Peters, E. I. Proynov, P. A. Pieniazek, Y. M. Rhee, 
 J. Ritchie, E. Rosta, C. D. Sherrill, A. C. Simmonett, J. E. Subotnik, 
 H. L. Woodcock III, W. Zhang, A. T. Bell, A. K. Chakraborty, D. M. Chipman, 
 F. J. Keil, A. Warshel, W. J. Hehre, H. F. Schaefer III, J. Kong, 
 A. I. Krylov, P. M. W. Gill, M. Head-Gordon

 Additional authors for Version 3.1: 
 Z. Gan, Y. Zhao, N. E. Schultz, D. Truhlar, E. Epifanovsky, M. Oana

 Additional authors for Version 3.2: 
 R. Baer, B. R. Brooks, D. Casanova, J.-D. Chai, C.-L. Cheng, C. Cramer, 
 D. Crittenden, A. Ghysels, G. Hawkins, E. G. Hohenstein, C. Kelley, 
 W. Kurlancheek, D. Liotard, E. Livshits, P. Manohar, A. Marenich, 
 D. Neuhauser, R. Olson, M. A. Rohrdanz, K. S. Thanthiriwatte, A. J. W. Thom, 
 V. Vanovschi, C. F. Williams, Q. Wu, Z.-Q. You

 Additional authors for Version 4.0: 
 A. Aspuru-Guzik, Y. Bernard, C. Chang, J. Deng, A. Dreuw, M. Diedenhofen, 
 R. G. Edgar, D. Ghosh, W. A. Goddard III, M. Goldey, L. D. Jacobson, 
 M. Gordon, B. Kaduk, I. Kaliman, K. Khistyaev, R. King, A. Klamt, 
 D. Kosenkov, T. Kus, D. Lambrecht, A. Landau, A. W. Lange, K. Lawler, F. Liu, 
 J. Liu, R. Olivares-Amaya, S. P. Mao, J. Parkhill, N. Russ, M. Schmidt, 
 N. Shenvi, D. Small, Y. C. Su, E. Sundstrom, L. Vogt, O. Vydrov, M. Watson, 
 M. Wormit, X. Xu, S. Yeganeh, I. Y. Zhang, D. Zuev

 Additional authors for Version 4.1: 
 X. Feng, M. W. D. Hanson-Heine, P. Horn, H. Ji, A. Laurent, R. Peverati, 
 N. Mardirossian, N. Sergueev, S. Sharada, P. Zimmerman

 Q-Chem, Version 4.1, Q-Chem, Inc., Pittsburgh, PA (2013).

 Parts of Q-Chem use Armadillo 4.100.2 (Dirt Cruiser).
 http://arma.sourceforge.net/

 MAC (Intel) OSX Version 4.1.2

 Q-chem begins on Tue May  6 12:59:36 2014  

Deborahs-MacBook-Air.local
Host: 0

     Scratch files written to /tmp/qchem27751//
 Apr1114 |Users|Deb|Programs|trunk|libmdc|qstr_info.C -1
Finally everything over in PARseQInput

--------------------------------------------------------------
User input:
--------------------------------------------------------------
$molecule
read
$end

$rem
JOBTYPE OPT
EXCHANGE HF
CORRELATION MP2
BASIS 6-311G**
SCF_GUESS READ
$end

$opt
CONSTRAINT
bend 3 1 2 79.0
ENDCONSTRAINT
$end
--------------------------------------------------------------
 ----------------------------------------------------------------
             Standard Nuclear Orientation (Angstroms)
    I     Atom           X                Y                Z
 ----------------------------------------------------------------
    1      C       0.5925459981    -0.1574314926    -0.0000000000
    2      H       0.5385500608     0.9899910984     0.0000000000
    3      N      -0.5848322927    -0.0064860204     0.0000000000
 ----------------------------------------------------------------
 Molecular Point Group                 Cs    NOp =  2
 Largest Abelian Subgroup              Cs    NOp =  2
 Nuclear Repulsion Energy =    23.9546591903 hartrees
 There are        7 alpha and        7 beta electrons
 Requested basis set is 6-311G(d,p)
 There are 14 shells and 42 basis functions

Total QAlloc Memory Limit   2000 MB
Mega-Array Size        61 MB
MEM_STATIC part        62 MB
 A cutoff of  1.0D-11 yielded    105 shell pairs
 There are       962 function pairs (      1059 Cartesian)
 Smallest overlap matrix eigenvalue = 6.16E-03

  Scale SEOQF with 1.000000e+00/1.000000e+00/1.000000e+00

 Standard Electronic Orientation quadrupole field applied
 Nucleus-field energy     =     0.0000000025 hartrees
 Guess MOs from SCF MO coefficient file
Reading MOs from coefficient file
Reading MOs from coefficient file
 A restricted Hartree-Fock SCF calculation will be
 performed using Pulay DIIS extrapolation
 SCF converges when DIIS error is below 1.0E-08
 ---------------------------------------
  Cycle       Energy         DIIS Error
 ---------------------------------------
    1     -92.8192411851      5.74E-04
    2     -92.8198373752      1.05E-04
    3     -92.8198423769      6.37E-05
    4     -92.8198437724      3.28E-05
    5     -92.8198445924      1.23E-05
    6     -92.8198447661      3.26E-06
    7     -92.8198447774      8.81E-07
    8     -92.8198447782      3.66E-07
    9     -92.8198447784      1.41E-07
   10     -92.8198447784      4.84E-08
   11     -92.8198447784      9.49E-09 Convergence criterion met
 ---------------------------------------
 SCF time:  CPU 0.30 s  wall 0.30 s
 SCF   energy in the final basis set = -92.8198447784
 Total energy in the final basis set = -92.8198447784

 Components of the MP2 correlation energy:
        aaaa  correlation energy =        -0.0398735175 au
        abab  correlation energy =        -0.2541032548 au
        bbbb  correlation energy =        -0.0398735175 au
        non-Brillouin singles    =        -0.0000000000 au

 Total  MP2   correlation energy =        -0.3338502899 au
        MP2         total energy =       -93.1536950684 au

  Entering Z-vector solver.
OV_DIM:  Setting MaxSz  = 245
OV_DIM:  Setting MaxSpc = 245
   1         0           1      0.001815    0.001815
   2         0           1      0.001005    0.001005
   3         0           1      0.000448    0.000448
   4         0           1      0.000106    0.000106
   5         0           1      0.000029    0.000029
   6         0           1      0.000008    0.000008
   7         0           1      0.000003    0.000003
   8         0           1      0.000001    0.000001
   9         1           0      0.000000    0.000000    Roots Converged
 Analysis of SCF Wavefunction

 --------------------------------------------------------------
             Orbital Energies (a.u.) and Symmetries
 --------------------------------------------------------------

 Alpha MOs, Restricted
 -- Occupied --                  
-15.653 -11.289  -1.296  -0.720  -0.615  -0.528  -0.493
  1 A'    2 A'    3 A'    4 A'    5 A'    1 A"    6 A'                         
 -- Virtual --                   
  0.091   0.169   0.172   0.353   0.463   0.586   0.599   0.709
  7 A'    2 A"    8 A'    9 A'   10 A'    3 A"   11 A'   12 A'                 
  0.756   0.860   0.861   1.002   1.250   1.254   1.460   1.634
 13 A'    4 A"   14 A'   15 A'   16 A'    5 A"   17 A'    6 A"                 
  1.706   1.921   2.032   2.205   2.321   2.399   2.600   2.696
 18 A'   19 A'    7 A"   20 A'    8 A"   21 A'   22 A'   23 A'                 
  2.799   2.966   3.129   3.186   3.381   3.654   4.198   4.256
  9 A"   24 A'   10 A"   25 A'   26 A'   27 A'   11 A"   28 A'                 
  4.793  25.080  36.943
 29 A'   30 A'   31 A'                                                         

 Beta MOs, Restricted
 -- Occupied --                  
-15.653 -11.289  -1.296  -0.720  -0.615  -0.528  -0.493
  1 A'    2 A'    3 A'    4 A'    5 A'    1 A"    6 A'                         
 -- Virtual --                   
  0.091   0.169   0.172   0.353   0.463   0.586   0.599   0.709
  7 A'    2 A"    8 A'    9 A'   10 A'    3 A"   11 A'   12 A'                 
  0.756   0.860   0.861   1.002   1.250   1.254   1.460   1.634
 13 A'    4 A"   14 A'   15 A'   16 A'    5 A"   17 A'    6 A"                 
  1.706   1.921   2.032   2.205   2.321   2.399   2.600   2.696
 18 A'   19 A'    7 A"   20 A'    8 A"   21 A'   22 A'   23 A'                 
  2.799   2.966   3.129   3.186   3.381   3.654   4.198   4.256
  9 A"   24 A'   10 A"   25 A'   26 A'   27 A'   11 A"   28 A'                 
  4.793  25.080  36.943
 29 A'   30 A'   31 A'                                                         
 --------------------------------------------------------------

          Ground-State Mulliken Net Atomic Charges

     Atom                 Charge (a.u.)
  ----------------------------------------
      1 C                    -0.113425
      2 H                     0.220707
      3 N                    -0.107282
  ----------------------------------------
  Sum of atomic charges =    -0.000000

 -----------------------------------------------------------------
                    Cartesian Multipole Moments
 -----------------------------------------------------------------
    Charge (ESU x 10^10)
                -0.0000
    Dipole Moment (Debye)
         X       0.5727      Y       1.2194      Z      -0.0000
       Tot       1.3472
    Quadrupole Moments (Debye-Ang)
        XX     -13.8754     XY       0.9093     YY      -9.8702
        XZ      -0.0000     YZ      -0.0000     ZZ     -12.1654
    Octopole Moments (Debye-Ang^2)
       XXX      -2.1905    XXY       0.4913    XYY       0.0660
       YYY       2.6889    XXZ      -0.0000    XYZ       0.0000
       YYZ      -0.0000    XZZ      -0.7672    YZZ       0.3543
       ZZZ      -0.0000
    Hexadecapole Moments (Debye-Ang^3)
      XXXX     -42.8243   XXXY       1.0597   XXYY      -8.7043
      XYYY       1.7819   YYYY     -13.1096   XXXZ      -0.0000
      XXYZ      -0.0000   XYYZ      -0.0000   YYYZ       0.0000
      XXZZ      -8.7040   XYZZ       0.2452   YYZZ      -4.5961
      XZZZ      -0.0000   YZZZ      -0.0000   ZZZZ     -12.1380
 -----------------------------------------------------------------
 DrvMan is completing analytic gradient of the MP2 energy
 MP2 relaxed dipole moment
            1
    1   0.2253251
    2   0.4797588
    3  -0.0000000
	Magnitude:	 0.530 au	 1.347 Debye
 MP2 energy read as -93.153695
 Full Analytical Gradient of MP2 Energy (in au.)
             1             2             3
    1    0.01064173   -0.01214021    0.00149848
    2   -0.01110364   -0.00056115    0.01166479
    3   -0.00000000   -0.00000000    0.00000000
 Gradient time:  CPU 0.00 s  wall 0.00 s
 Geometry Optimization Parameters
   NAtoms,    NIC,     NZ,  NCons,   NDum,   NFix, NCnnct, MaxDiis
        3       9       0       1       0       0       0       0


** CONSTRAINED OPTIMIZATION IN DELOCALIZED INTERNAL COORDINATES **
   Searching for a Minimum

   Optimization Cycle:   1

                       Coordinates (Angstroms)
     ATOM                X               Y               Z
      1  C         0.5925459981   -0.1574314926    0.0000000000
      2  H         0.5385500608    0.9899910984    0.0000000000
      3  N        -0.5848322927   -0.0064860204    0.0000000000
   Point Group: cs    Number of degrees of freedom:     3


   Energy is    -93.153695068

              Constraints and their Current Values
                                        Value     Constraint
   Angle:           3   1   2           80.000       79.000

 Attempting to Generate Delocalized Internal Coordinates
 GETINT wrote B to file, NVib is            3
 GETINT wrote B to file, NVib is            3
**WARNING** Problems with Internal Coordinates
  Switching to Cartesian Coordinates

   Using Lagrange Multiplier Algorithm


 Translations and Rotations Projected Out of Hessian

  4 Hessian modes will be used to form the next step
  Hessian Eigenvalues:
    -0.500304    1.000000    1.000000    1.500304

 Minimum Search - Taking P-RFO Step
 Searching for Lamda that Maximizes Along the Constraint modes Only
 Value Taken    Lamda =   0.00140454
 Searching for Lamda that Minimizes Along All other modes
 Value Taken    Lamda =  -0.00008165
 Step Taken.  Stepsize is  0.053422

                             Maximum     Tolerance    Cnvgd?
         Gradient           0.017453      0.000300      NO
         Displacement       0.049508      0.001200      NO
         Energy change     *********      0.000001      NO

 ----------------------------------------------------------------
             Standard Nuclear Orientation (Angstroms)
    I     Atom           X                Y                Z
 ----------------------------------------------------------------
    1      C       0.5974945620    -0.1625827241     0.0000000000
    2      H       0.5329079232     0.9897202412     0.0000000000
    3      N      -0.5841387191    -0.0010639317     0.0000000000
 ----------------------------------------------------------------
 Molecular Point Group                 Cs    NOp =  2
 Largest Abelian Subgroup              Cs    NOp =  2
 Nuclear Repulsion Energy =    23.8677319675 hartrees
 There are        7 alpha and        7 beta electrons
 Applying Cartesian multipole field
    Component          Value
    ---------          -----
     (2,0,0)        1.00000E-10
     (0,2,0)        2.00000E-10
     (0,0,2)       -3.00000E-10
 Nucleus-field energy     =     0.0000000025 hartrees
 Requested basis set is 6-311G(d,p)
 There are 14 shells and 42 basis functions
 A cutoff of  1.0D-11 yielded    105 shell pairs
 There are       962 function pairs (      1059 Cartesian)
 Smallest overlap matrix eigenvalue = 6.27E-03
 Guess MOs from SCF MO coefficient file
Reading MOs from coefficient file
Reading MOs from coefficient file
 A restricted Hartree-Fock SCF calculation will be
 performed using Pulay DIIS extrapolation
 SCF converges when DIIS error is below 1.0E-08
Geometry optimization detected.  Setting ReadMinima to 0
Setting SaveMinima to 0
 ---------------------------------------
  Cycle       Energy         DIIS Error
 ---------------------------------------
    1     -92.8118016119      1.48E-03
    2     -92.8191977532      1.87E-04
    3     -92.8192178702      9.34E-05
    4     -92.8192237358      5.39E-05
    5     -92.8192266792      2.94E-05
    6     -92.8192272975      1.06E-05
    7     -92.8192274000      2.78E-06
    8     -92.8192274081      1.02E-06
    9     -92.8192274093      3.16E-07
   10     -92.8192274095      1.36E-07
   11     -92.8192274095      3.04E-08
   12     -92.8192274095      2.52E-09 Convergence criterion met
 ---------------------------------------
 SCF time:  CPU 0.32 s  wall 0.32 s
 SCF   energy in the final basis set = -92.8192274095
 Total energy in the final basis set = -92.8192274095

 Components of the MP2 correlation energy:
        aaaa  correlation energy =        -0.0398916360 au
        abab  correlation energy =        -0.2542122608 au
        bbbb  correlation energy =        -0.0398916360 au
        non-Brillouin singles    =        -0.0000000000 au

 Total  MP2   correlation energy =        -0.3339955329 au
        MP2         total energy =       -93.1532229423 au

  Entering Z-vector solver.
OV_DIM:  Setting MaxSz  = 245
OV_DIM:  Setting MaxSpc = 245
   1         0           1      0.001815    0.001815
   2         0           1      0.000986    0.000986
   3         0           1      0.000451    0.000451
   4         0           1      0.000107    0.000107
   5         0           1      0.000029    0.000029
   6         0           1      0.000008    0.000008
   7         0           1      0.000003    0.000003
   8         0           1      0.000001    0.000001
   9         1           0      0.000000    0.000000    Roots Converged
 Analysis of SCF Wavefunction

 --------------------------------------------------------------
             Orbital Energies (a.u.) and Symmetries
 --------------------------------------------------------------

 Alpha MOs, Restricted
 -- Occupied --                  
-15.655 -11.292  -1.295  -0.719  -0.615  -0.527  -0.493
  1 A'    2 A'    3 A'    4 A'    5 A'    1 A"    6 A'                         
 -- Virtual --                   
  0.091   0.167   0.171   0.352   0.461   0.586   0.599   0.708
  7 A'    2 A"    8 A'    9 A'   10 A'    3 A"   11 A'   12 A'                 
  0.754   0.859   0.860   0.994   1.248   1.253   1.461   1.630
 13 A'    4 A"   14 A'   15 A'   16 A'    5 A"   17 A'    6 A"                 
  1.704   1.911   2.031   2.198   2.318   2.408   2.590   2.692
 18 A'   19 A'    7 A"   20 A'    8 A"   21 A'   22 A'   23 A'                 
  2.793   2.971   3.127   3.180   3.385   3.640   4.194   4.254
  9 A"   24 A'   10 A"   25 A'   26 A'   27 A'   11 A"   28 A'                 
  4.787  25.068  36.929
 29 A'   30 A'   31 A'                                                         

 Beta MOs, Restricted
 -- Occupied --                  
-15.655 -11.292  -1.295  -0.719  -0.615  -0.527  -0.493
  1 A'    2 A'    3 A'    4 A'    5 A'    1 A"    6 A'                         
 -- Virtual --                   
  0.091   0.167   0.171   0.352   0.461   0.586   0.599   0.708
  7 A'    2 A"    8 A'    9 A'   10 A'    3 A"   11 A'   12 A'                 
  0.754   0.859   0.860   0.994   1.248   1.253   1.461   1.630
 13 A'    4 A"   14 A'   15 A'   16 A'    5 A"   17 A'    6 A"                 
  1.704   1.911   2.031   2.198   2.318   2.408   2.590   2.692
 18 A'   19 A'    7 A"   20 A'    8 A"   21 A'   22 A'   23 A'                 
  2.793   2.971   3.127   3.180   3.385   3.640   4.194   4.254
  9 A"   24 A'   10 A"   25 A'   26 A'   27 A'   11 A"   28 A'                 
  4.787  25.068  36.929
 29 A'   30 A'   31 A'                                                         
 --------------------------------------------------------------

          Ground-State Mulliken Net Atomic Charges

     Atom                 Charge (a.u.)
  ----------------------------------------
      1 C                    -0.115322
      2 H                     0.221362
      3 N                    -0.106040
  ----------------------------------------
  Sum of atomic charges =     0.000000

 -----------------------------------------------------------------
                    Cartesian Multipole Moments
 -----------------------------------------------------------------
    Charge (ESU x 10^10)
                 0.0000
    Dipole Moment (Debye)
         X       0.5379      Y       1.2237      Z       0.0000
       Tot       1.3368
    Quadrupole Moments (Debye-Ang)
        XX     -13.9213     XY       0.9438     YY      -9.8803
        XZ       0.0000     YZ      -0.0000     ZZ     -12.1909
    Octopole Moments (Debye-Ang^2)
       XXX      -2.3913    XXY       0.4939    XYY       0.0234
       YYY       2.6817    XXZ       0.0000    XYZ      -0.0000
       YYZ       0.0000    XZZ      -0.8079    YZZ       0.3548
       ZZZ       0.0000
    Hexadecapole Moments (Debye-Ang^3)
      XXXX     -43.1136   XXXY       1.2599   XXYY      -8.7683
      XYYY       1.9321   YYYY     -13.1941   XXXZ       0.0000
      XXYZ      -0.0000   XYYZ       0.0000   YYYZ      -0.0000
      XXZZ      -8.7570   XYZZ       0.2991   YYZZ      -4.6172
      XZZZ       0.0000   YZZZ      -0.0000   ZZZZ     -12.1820
 -----------------------------------------------------------------
 DrvMan is completing analytic gradient of the MP2 energy
 MP2 relaxed dipole moment
            1
    1   0.2116401
    2   0.4814571
    3   0.0000000
	Magnitude:	 0.526 au	 1.337 Debye
 MP2 energy read as -93.153223
 Full Analytical Gradient of MP2 Energy (in au.)
             1             2             3
    1    0.01895224   -0.00965407   -0.00929817
    2   -0.01113161    0.00047235    0.01065926
    3    0.00000000    0.00000000   -0.00000000
 Gradient time:  CPU 0.00 s  wall 0.00 s
 Geometry Optimization Parameters
   NAtoms,    NIC,     NZ,  NCons,   NDum,   NFix, NCnnct, MaxDiis
        3       9       0       1       0       0       0       0

 Cartesian Hessian Update
 Hessian Updated using BFGS Update


** CONSTRAINED OPTIMIZATION IN CARTESIAN COORDINATES **
   Searching for a Minimum

   Optimization Cycle:   2

                       Coordinates (Angstroms)
     ATOM                X               Y               Z
      1  C         0.5974945620   -0.1625827241    0.0000000000
      2  H         0.5329079232    0.9897202412    0.0000000000
      3  N        -0.5841387191   -0.0010639317    0.0000000000
   Point Group: cs    Number of degrees of freedom:     3


   Energy is    -93.153222942

              Constraints and their Current Values
                                        Value     Constraint
   Angle:           3   1   2           79.008       79.000

   Using Lagrange Multiplier Algorithm


 Translations and Rotations Projected Out of Hessian

  4 Hessian modes will be used to form the next step
  Hessian Eigenvalues:
    -0.869678    0.840449    1.025076    8.320593

 Minimum Search - Taking P-RFO Step
 Searching for Lamda that Maximizes Along the Constraint modes Only
 Value Taken    Lamda =   0.00021403
 Searching for Lamda that Minimizes Along All other modes
 Value Taken    Lamda =  -0.00024432
 Step Taken.  Stepsize is  0.022708

                             Maximum     Tolerance    Cnvgd?
         Gradient           0.013011      0.000300      NO
         Displacement       0.022642      0.001200      NO
         Energy change      0.000472      0.000001      NO

 ----------------------------------------------------------------
             Standard Nuclear Orientation (Angstroms)
    I     Atom           X                Y                Z
 ----------------------------------------------------------------
    1      C       0.5970470534    -0.1626110286     0.0000000000
    2      H       0.5326417258     0.9895787809     0.0000000000
    3      N      -0.5834250130    -0.0008941670     0.0000000000
 ----------------------------------------------------------------
 Molecular Point Group                 Cs    NOp =  2
 Largest Abelian Subgroup              Cs    NOp =  2
 Nuclear Repulsion Energy =    23.8871619449 hartrees
 There are        7 alpha and        7 beta electrons
 Applying Cartesian multipole field
    Component          Value
    ---------          -----
     (2,0,0)        1.00000E-10
     (0,2,0)        2.00000E-10
     (0,0,2)       -3.00000E-10
 Nucleus-field energy     =     0.0000000025 hartrees
 Requested basis set is 6-311G(d,p)
 There are 14 shells and 42 basis functions
 A cutoff of  1.0D-11 yielded    105 shell pairs
 There are       962 function pairs (      1059 Cartesian)
 Smallest overlap matrix eigenvalue = 6.25E-03
 Guess MOs from SCF MO coefficient file
Reading MOs from coefficient file
Reading MOs from coefficient file
 A restricted Hartree-Fock SCF calculation will be
 performed using Pulay DIIS extrapolation
 SCF converges when DIIS error is below 1.0E-08
Geometry optimization detected.  Setting ReadMinima to 0
Setting SaveMinima to 0
 ---------------------------------------
  Cycle       Energy         DIIS Error
 ---------------------------------------
    1     -92.8208454755      2.11E-04
    2     -92.8193559851      2.58E-05
    3     -92.8193561610      1.40E-05
    4     -92.8193562017      4.93E-06
    5     -92.8193562135      2.56E-06
    6     -92.8193562201      1.01E-06
    7     -92.8193562215      2.37E-07
    8     -92.8193562216      7.46E-08
    9     -92.8193562216      3.41E-08
   10     -92.8193562216      9.89E-09 Convergence criterion met
 ---------------------------------------
 SCF time:  CPU 0.27 s  wall 0.27 s
 SCF   energy in the final basis set = -92.8193562216
 Total energy in the final basis set = -92.8193562216

 Components of the MP2 correlation energy:
        aaaa  correlation energy =        -0.0398787746 au
        abab  correlation energy =        -0.2541264398 au
        bbbb  correlation energy =        -0.0398787746 au
        non-Brillouin singles    =        -0.0000000000 au

 Total  MP2   correlation energy =        -0.3338839891 au
        MP2         total energy =       -93.1532402106 au

  Entering Z-vector solver.
OV_DIM:  Setting MaxSz  = 245
OV_DIM:  Setting MaxSpc = 245
   1         0           1      0.001807    0.001807
   2         0           1      0.000981    0.000981
   3         0           1      0.000448    0.000448
   4         0           1      0.000107    0.000107
   5         0           1      0.000029    0.000029
   6         0           1      0.000008    0.000008
   7         0           1      0.000003    0.000003
   8         0           1      0.000001    0.000001
   9         1           0      0.000000    0.000000    Roots Converged
 Analysis of SCF Wavefunction

 --------------------------------------------------------------
             Orbital Energies (a.u.) and Symmetries
 --------------------------------------------------------------

 Alpha MOs, Restricted
 -- Occupied --                  
-15.654 -11.291  -1.295  -0.719  -0.615  -0.527  -0.493
  1 A'    2 A'    3 A'    4 A'    5 A'    1 A"    6 A'                         
 -- Virtual --                   
  0.092   0.167   0.171   0.352   0.461   0.586   0.599   0.708
  7 A'    2 A"    8 A'    9 A'   10 A'    3 A"   11 A'   12 A'                 
  0.754   0.859   0.860   0.995   1.249   1.252   1.461   1.631
 13 A'    4 A"   14 A'   15 A'   16 A'    5 A"   17 A'    6 A"                 
  1.704   1.911   2.031   2.199   2.318   2.409   2.591   2.693
 18 A'   19 A'    7 A"   20 A'    8 A"   21 A'   22 A'   23 A'                 
  2.795   2.972   3.127   3.181   3.385   3.641   4.195   4.254
  9 A"   24 A'   10 A"   25 A'   26 A'   27 A'   11 A"   28 A'                 
  4.788  25.070  36.932
 29 A'   30 A'   31 A'                                                         

 Beta MOs, Restricted
 -- Occupied --                  
-15.654 -11.291  -1.295  -0.719  -0.615  -0.527  -0.493
  1 A'    2 A'    3 A'    4 A'    5 A'    1 A"    6 A'                         
 -- Virtual --                   
  0.092   0.167   0.171   0.352   0.461   0.586   0.599   0.708
  7 A'    2 A"    8 A'    9 A'   10 A'    3 A"   11 A'   12 A'                 
  0.754   0.859   0.860   0.995   1.249   1.252   1.461   1.631
 13 A'    4 A"   14 A'   15 A'   16 A'    5 A"   17 A'    6 A"                 
  1.704   1.911   2.031   2.199   2.318   2.409   2.591   2.693
 18 A'   19 A'    7 A"   20 A'    8 A"   21 A'   22 A'   23 A'                 
  2.795   2.972   3.127   3.181   3.385   3.641   4.195   4.254
  9 A"   24 A'   10 A"   25 A'   26 A'   27 A'   11 A"   28 A'                 
  4.788  25.070  36.932
 29 A'   30 A'   31 A'                                                         
 --------------------------------------------------------------

          Ground-State Mulliken Net Atomic Charges

     Atom                 Charge (a.u.)
  ----------------------------------------
      1 C                    -0.115211
      2 H                     0.221253
[...]
        aaaa  correlation energy =        -0.0394900746 au
        abab  correlation energy =        -0.2515706839 au
        bbbb  correlation energy =        -0.0394900746 au
        non-Brillouin singles    =        -0.0000000000 au

 Total  MP2   correlation energy =        -0.3305508331 au
        MP2         total energy =       -93.1555046534 au

  Entering Z-vector solver.
OV_DIM:  Setting MaxSz  = 245
OV_DIM:  Setting MaxSpc = 245
   1         0           1      0.001221    0.001221
   2         0           1      0.000453    0.000453
   3         0           1      0.000173    0.000173
   4         0           1      0.000075    0.000075
   5         0           1      0.000022    0.000022
   6         0           1      0.000004    0.000004
   7         0           1      0.000001    0.000001
   8         1           0      0.000000    0.000000    Roots Converged
 Analysis of SCF Wavefunction

 --------------------------------------------------------------
             Orbital Energies (a.u.) and Symmetries
 --------------------------------------------------------------

 Alpha MOs, Restricted
 -- Occupied --                  
-15.650 -11.307  -1.314  -0.693  -0.636  -0.530  -0.499
  1 A'    2 A'    3 A'    4 A'    5 A'    1 A"    6 A'                         
 -- Virtual --                   
  0.121   0.162   0.165   0.356   0.452   0.583   0.593   0.705
  7 A'    8 A'    2 A"    9 A'   10 A'    3 A"   11 A'   12 A'                 
  0.733   0.852   0.858   0.977   1.230   1.260   1.539   1.618
 13 A'   14 A'    4 A"   15 A'    5 A"   16 A'   17 A'    6 A"                 
  1.670   1.821   1.969   2.183   2.364   2.474   2.561   2.735
 18 A'   19 A'    7 A"   20 A'    8 A"   21 A'   22 A'   23 A'                 
  2.787   3.042   3.108   3.209   3.369   3.519   4.187   4.363
  9 A"   24 A'   10 A"   25 A'   26 A'   27 A'   11 A"   28 A'                 
  4.795  25.040  36.902
 29 A'   30 A'   31 A'                                                         

 Beta MOs, Restricted
 -- Occupied --                  
-15.650 -11.307  -1.314  -0.693  -0.636  -0.530  -0.499
  1 A'    2 A'    3 A'    4 A'    5 A'    1 A"    6 A'                         
 -- Virtual --                   
  0.121   0.162   0.165   0.356   0.452   0.583   0.593   0.705
  7 A'    8 A'    2 A"    9 A'   10 A'    3 A"   11 A'   12 A'                 
  0.733   0.852   0.858   0.977   1.230   1.260   1.539   1.618
 13 A'   14 A'    4 A"   15 A'    5 A"   16 A'   17 A'    6 A"                 
  1.670   1.821   1.969   2.183   2.364   2.474   2.561   2.735
 18 A'   19 A'    7 A"   20 A'    8 A"   21 A'   22 A'   23 A'                 
  2.787   3.042   3.108   3.209   3.369   3.519   4.187   4.363
  9 A"   24 A'   10 A"   25 A'   26 A'   27 A'   11 A"   28 A'                 
  4.795  25.040  36.902
 29 A'   30 A'   31 A'                                                         
 --------------------------------------------------------------

          Ground-State Mulliken Net Atomic Charges

     Atom                 Charge (a.u.)
  ----------------------------------------
      1 C                    -0.109793
      2 H                     0.214908
      3 N                    -0.105115
  ----------------------------------------
  Sum of atomic charges =    -0.000000

 -----------------------------------------------------------------
                    Cartesian Multipole Moments
 -----------------------------------------------------------------
    Charge (ESU x 10^10)
                -0.0000
    Dipole Moment (Debye)
         X      -0.1017      Y       1.2833      Z      -0.0000
       Tot       1.2873
    Quadrupole Moments (Debye-Ang)
        XX     -14.7169     XY       0.3628     YY      -9.6490
        XZ       0.0000     YZ       0.0000     ZZ     -12.2378
    Octopole Moments (Debye-Ang^2)
       XXX      -3.8293    XXY       0.1008    XYY      -0.7183
       YYY       2.4001    XXZ      -0.0000    XYZ      -0.0000
       YYZ       0.0000    XZZ      -0.9672    YZZ       0.2459
       ZZZ      -0.0000
    Hexadecapole Moments (Debye-Ang^3)
      XXXX     -44.5535   XXXY       0.7209   XXYY      -9.2289
      XYYY       0.9119   YYYY     -12.5161   XXXZ       0.0000
      XXYZ       0.0000   XYYZ       0.0000   YYYZ       0.0000
      XXZZ      -8.9393   XYZZ       0.1834   YYZZ      -4.5441
      XZZZ       0.0000   YZZZ       0.0000   ZZZZ     -12.2104
 -----------------------------------------------------------------
 DrvMan is completing analytic gradient of the MP2 energy
 MP2 relaxed dipole moment
            1
    1  -0.0400021
    2   0.5048703
    3  -0.0000000
	Magnitude:	 0.506 au	 1.287 Debye
 MP2 energy read as -93.155505
 Full Analytical Gradient of MP2 Energy (in au.)
             1             2             3
    1   -0.00719188    0.01502780   -0.00783591
    2    0.01022252    0.00575852   -0.01598105
    3    0.00000000   -0.00000000    0.00000000
 Gradient time:  CPU 0.00 s  wall 0.00 s
 Geometry Optimization Parameters
   NAtoms,    NIC,     NZ,  NCons,   NDum,   NFix, NCnnct, MaxDiis
        3      12       0       1       0       0       0       0

 Cartesian Hessian Update
 Hessian Updated using BFGS Update


** CONSTRAINED OPTIMIZATION IN DELOCALIZED INTERNAL COORDINATES **
   Searching for a Minimum

   Optimization Cycle:   3

                       Coordinates (Angstroms)
     ATOM                X               Y               Z
      1  C         0.6343183464   -0.1116218820    0.0000000000
      2  H         0.1778550828    1.0213920561    0.0000000000
      3  N        -0.5643599284   -0.0476120128    0.0000000000
   Point Group: cs    Number of degrees of freedom:     3


   Energy is    -93.155504653

              Constraints and their Current Values
                                        Value     Constraint
   Angle:           3   1   2           65.000       65.000
 GETINT wrote B to file, NVib is            3
 Hessian Updated using BFGS Update

  2 Hessian modes will be used to form the next step
  Hessian Eigenvalues:
     0.213540    0.664205

 Minimum Search - Taking Simple RFO Step
 Searching for Lamda that Minimizes Along All modes
 Value Taken    Lamda =  -0.00004872
 Step Taken.  Stepsize is  0.008606

                             Maximum     Tolerance    Cnvgd?
         Gradient           0.004277      0.000300      NO
         Displacement       0.006918      0.001200      NO
         Energy change     -0.000028      0.000001      NO


 New Cartesian Coordinates Obtained by Inverse Iteration

 Displacement from previous Coordinates is:  0.005419
 ----------------------------------------------------------------
             Standard Nuclear Orientation (Angstroms)
    I     Atom           X                Y                Z
 ----------------------------------------------------------------
    1      C       0.6327604707    -0.1122899680     0.0000000000
    2      H       0.1772350886     1.0217124068     0.0000000000
    3      N      -0.5621820585    -0.0472642776     0.0000000000
 ----------------------------------------------------------------
 Molecular Point Group                 Cs    NOp =  2
 Largest Abelian Subgroup              Cs    NOp =  2
 Nuclear Repulsion Energy =    24.0200880744 hartrees
 There are        7 alpha and        7 beta electrons
 Applying Cartesian multipole field
    Component          Value
    ---------          -----
     (2,0,0)        1.00000E-10
     (0,2,0)        2.00000E-10
     (0,0,2)       -3.00000E-10
 Nucleus-field energy     =     0.0000000025 hartrees
 Requested basis set is 6-311G(d,p)
 There are 14 shells and 42 basis functions
 A cutoff of  1.0D-11 yielded    105 shell pairs
 There are       962 function pairs (      1059 Cartesian)
 Smallest overlap matrix eigenvalue = 6.34E-03
 Guess MOs from SCF MO coefficient file
Reading MOs from coefficient file
Reading MOs from coefficient file
 A restricted Hartree-Fock SCF calculation will be
 performed using Pulay DIIS extrapolation
 SCF converges when DIIS error is below 1.0E-08
Geometry optimization detected.  Setting ReadMinima to 0
Setting SaveMinima to 0
 ---------------------------------------
  Cycle       Energy         DIIS Error
 ---------------------------------------
    1     -92.8299069764      6.98E-04
    2     -92.8254323483      8.14E-05
    3     -92.8254339264      4.37E-05
    4     -92.8254342925      1.38E-05
    5     -92.8254343676      5.83E-06
    6     -92.8254343979      2.41E-06
    7     -92.8254344041      6.73E-07
    8     -92.8254344046      1.67E-07
    9     -92.8254344046      5.41E-08
   10     -92.8254344046      1.38E-08
   11     -92.8254344046      7.76E-09 Convergence criterion met
 ---------------------------------------
 SCF time:  CPU 0.30 s  wall 0.30 s
 SCF   energy in the final basis set = -92.8254344046
 Total energy in the final basis set = -92.8254344046

 Components of the MP2 correlation energy:
        aaaa  correlation energy =        -0.0394301031 au
        abab  correlation energy =        -0.2512341116 au
        bbbb  correlation energy =        -0.0394301031 au
        non-Brillouin singles    =        -0.0000000000 au

 Total  MP2   correlation energy =        -0.3300943177 au
        MP2         total energy =       -93.1555287224 au

  Entering Z-vector solver.
OV_DIM:  Setting MaxSz  = 245
OV_DIM:  Setting MaxSpc = 245
   1         0           1      0.001203    0.001203
   2         0           1      0.000445    0.000445
   3         0           1      0.000171    0.000171
   4         0           1      0.000075    0.000075
   5         0           1      0.000021    0.000021
   6         0           1      0.000004    0.000004
   7         1           0      0.000000    0.000000    Roots Converged
 Analysis of SCF Wavefunction

 --------------------------------------------------------------
             Orbital Energies (a.u.) and Symmetries
 --------------------------------------------------------------

 Alpha MOs, Restricted
 -- Occupied --                  
-15.649 -11.306  -1.316  -0.692  -0.637  -0.531  -0.499
  1 A'    2 A'    3 A'    4 A'    5 A'    1 A"    6 A'                         
 -- Virtual --                   
  0.122   0.163   0.167   0.356   0.452   0.583   0.593   0.705
  7 A'    8 A'    2 A"    9 A'   10 A'    3 A"   11 A'   12 A'                 
  0.733   0.852   0.858   0.981   1.229   1.262   1.542   1.621
 13 A'   14 A'    4 A"   15 A'    5 A"   16 A'   17 A'    6 A"                 
  1.669   1.821   1.969   2.187   2.365   2.473   2.563   2.738
 18 A'   19 A'    7 A"   20 A'    8 A"   21 A'   22 A'   23 A'                 
  2.790   3.043   3.109   3.215   3.366   3.519   4.189   4.366
  9 A"   24 A'   10 A"   25 A'   26 A'   27 A'   11 A"   28 A'                 
  4.799  25.048  36.910
 29 A'   30 A'   31 A'                                                         

 Beta MOs, Restricted
 -- Occupied --                  
-15.649 -11.306  -1.316  -0.692  -0.637  -0.531  -0.499
  1 A'    2 A'    3 A'    4 A'    5 A'    1 A"    6 A'                         
 -- Virtual --                   
  0.122   0.163   0.167   0.356   0.452   0.583   0.593   0.705
  7 A'    8 A'    2 A"    9 A'   10 A'    3 A"   11 A'   12 A'                 
  0.733   0.852   0.858   0.981   1.229   1.262   1.542   1.621
 13 A'   14 A'    4 A"   15 A'    5 A"   16 A'   17 A'    6 A"                 
  1.669   1.821   1.969   2.187   2.365   2.473   2.563   2.738
 18 A'   19 A'    7 A"   20 A'    8 A"   21 A'   22 A'   23 A'                 
  2.790   3.043   3.109   3.215   3.366   3.519   4.189   4.366
  9 A"   24 A'   10 A"   25 A'   26 A'   27 A'   11 A"   28 A'                 
  4.799  25.048  36.910
 29 A'   30 A'   31 A'                                                         
 --------------------------------------------------------------

          Ground-State Mulliken Net Atomic Charges

     Atom                 Charge (a.u.)
  ----------------------------------------
      1 C                    -0.109623
      2 H                     0.215152
      3 N                    -0.105528
  ----------------------------------------
  Sum of atomic charges =    -0.000000

 -----------------------------------------------------------------
                    Cartesian Multipole Moments
 -----------------------------------------------------------------
    Charge (ESU x 10^10)
                -0.0000
    Dipole Moment (Debye)
         X      -0.1030      Y       1.2883      Z      -0.0000
       Tot       1.2924
    Quadrupole Moments (Debye-Ang)
        XX     -14.7137     XY       0.3659     YY      -9.6381
        XZ      -0.0000     YZ       0.0000     ZZ     -12.2278
    Octopole Moments (Debye-Ang^2)
       XXX      -3.8401    XXY       0.1071    XYY      -0.7224
       YYY       2.4135    XXZ      -0.0000    XYZ       0.0000
       YYZ      -0.0000    XZZ      -0.9689    YZZ       0.2479
       ZZZ      -0.0000
    Hexadecapole Moments (Debye-Ang^3)
      XXXX     -44.3869   XXXY       0.7377   XXYY      -9.2043
      XYYY       0.9242   YYYY     -12.5003   XXXZ      -0.0000
      XXYZ       0.0000   XYYZ      -0.0000   YYYZ       0.0000
      XXZZ      -8.9094   XYZZ       0.1875   YYZZ      -4.5395
      XZZZ      -0.0000   YZZZ       0.0000   ZZZZ     -12.1914
 -----------------------------------------------------------------
 DrvMan is completing analytic gradient of the MP2 energy
 MP2 relaxed dipole moment
            1
    1  -0.0405345
    2   0.5068404
    3  -0.0000000
	Magnitude:	 0.508 au	 1.292 Debye
 MP2 energy read as -93.155529
 Full Analytical Gradient of MP2 Energy (in au.)
             1             2             3
    1   -0.01401142    0.01476624   -0.00075482
    2    0.01029326    0.00594603   -0.01623929
    3    0.00000000    0.00000000   -0.00000000
 Gradient time:  CPU 0.00 s  wall 0.00 s
 Geometry Optimization Parameters
   NAtoms,    NIC,     NZ,  NCons,   NDum,   NFix, NCnnct, MaxDiis
        3      12       0       1       0       0       0       0

 Cartesian Hessian Update
 Hessian Updated using BFGS Update


** CONSTRAINED OPTIMIZATION IN DELOCALIZED INTERNAL COORDINATES **
   Searching for a Minimum

   Optimization Cycle:   4

                       Coordinates (Angstroms)
     ATOM                X               Y               Z
      1  C         0.6327604707   -0.1122899680    0.0000000000
      2  H         0.1772350886    1.0217124068    0.0000000000
      3  N        -0.5621820585   -0.0472642776    0.0000000000
   Point Group: cs    Number of degrees of freedom:     3


   Energy is    -93.155528722

              Constraints and their Current Values
                                        Value     Constraint
   Angle:           3   1   2           65.000       65.000
 GETINT wrote B to file, NVib is            3
 Hessian Updated using BFGS Update

  2 Hessian modes will be used to form the next step
  Hessian Eigenvalues:
     0.213617    0.676382

 Minimum Search - Taking Simple RFO Step
 Searching for Lamda that Minimizes Along All modes
 Value Taken    Lamda =   0.00000000
 Step Taken.  Stepsize is  0.000163

                             Maximum     Tolerance    Cnvgd?
         Gradient           0.000084      0.000300     YES
         Displacement       0.000147      0.001200     YES
         Energy change     -0.000024      0.000001      NO


                       Distance Matrix (Angstroms)
             C (  1)   H (  2)
   H (  2)  1.222074
   N (  3)  1.196710  1.299788

 Final energy is   -93.155528722367109     


 ******************************
 **  OPTIMIZATION CONVERGED  **
 ******************************

Z-matrix Print:
$molecule
0 1
N 
C  1 1.196710
H  2 1.222074 1 65.000002
$end

 Analysis of SCF Wavefunction

 --------------------------------------------------------------
             Orbital Energies (a.u.) and Symmetries
 --------------------------------------------------------------

 Alpha MOs, Restricted
 -- Occupied --                  
-15.649 -11.306  -1.316  -0.692  -0.637  -0.531  -0.499
  1 A'    2 A'    3 A'    4 A'    5 A'    1 A"    6 A'                         
 -- Virtual --                   
  0.122   0.163   0.167   0.356   0.452   0.583   0.593   0.705
  7 A'    8 A'    2 A"    9 A'   10 A'    3 A"   11 A'   12 A'                 
  0.733   0.852   0.858   0.981   1.229   1.262   1.542   1.621
 13 A'   14 A'    4 A"   15 A'    5 A"   16 A'   17 A'    6 A"                 
  1.669   1.821   1.969   2.187   2.365   2.473   2.563   2.738
 18 A'   19 A'    7 A"   20 A'    8 A"   21 A'   22 A'   23 A'                 
  2.790   3.043   3.109   3.215   3.366   3.519   4.189   4.366
  9 A"   24 A'   10 A"   25 A'   26 A'   27 A'   11 A"   28 A'                 
  4.799  25.048  36.910
 29 A'   30 A'   31 A'                                                         

 Beta MOs, Restricted
 -- Occupied --                  
-15.649 -11.306  -1.316  -0.692  -0.637  -0.531  -0.499
  1 A'    2 A'    3 A'    4 A'    5 A'    1 A"    6 A'                         
 -- Virtual --                   
  0.122   0.163   0.167   0.356   0.452   0.583   0.593   0.705
  7 A'    8 A'    2 A"    9 A'   10 A'    3 A"   11 A'   12 A'                 
  0.733   0.852   0.858   0.981   1.229   1.262   1.542   1.621
 13 A'   14 A'    4 A"   15 A'    5 A"   16 A'   17 A'    6 A"                 
  1.669   1.821   1.969   2.187   2.365   2.473   2.563   2.738
 18 A'   19 A'    7 A"   20 A'    8 A"   21 A'   22 A'   23 A'                 
  2.790   3.043   3.109   3.215   3.366   3.519   4.189   4.366
  9 A"   24 A'   10 A"   25 A'   26 A'   27 A'   11 A"   28 A'                 
  4.799  25.048  36.910
 29 A'   30 A'   31 A'                                                         
 --------------------------------------------------------------

          Ground-State Mulliken Net Atomic Charges

     Atom                 Charge (a.u.)
  ----------------------------------------
      1 C                    -0.109623
      2 H                     0.215152
      3 N                    -0.105528
  ----------------------------------------
  Sum of atomic charges =    -0.000000

 -----------------------------------------------------------------
                    Cartesian Multipole Moments
 -----------------------------------------------------------------
    Charge (ESU x 10^10)
                -0.0000
    Dipole Moment (Debye)
         X      -0.1030      Y       1.2883      Z      -0.0000
       Tot       1.2924
    Quadrupole Moments (Debye-Ang)
        XX     -14.7137     XY       0.3659     YY      -9.6381
        XZ      -0.0000     YZ       0.0000     ZZ     -12.2278
    Octopole Moments (Debye-Ang^2)
       XXX      -3.8401    XXY       0.1071    XYY      -0.7224
       YYY       2.4135    XXZ      -0.0000    XYZ       0.0000
       YYZ      -0.0000    XZZ      -0.9689    YZZ       0.2479
       ZZZ      -0.0000
    Hexadecapole Moments (Debye-Ang^3)
      XXXX     -44.3869   XXXY       0.7377   XXYY      -9.2043
      XYYY       0.9242   YYYY     -12.5003   XXXZ      -0.0000
      XXYZ       0.0000   XYYZ      -0.0000   YYYZ       0.0000
      XXZZ      -8.9094   XYZZ       0.1875   YYZZ      -4.5395
      XZZZ      -0.0000   YZZZ       0.0000   ZZZZ     -12.1914
 -----------------------------------------------------------------
Archival summary:
1\1\Deborahs-MacBook-Air.local\OPT\MP2\6-311G**\111\TueMay613:01:022014TueMay613:01:022014\0\\#,OPT,MP2,6-311G**,\\0,1\N\C,1,1.19671\H,2,1.22207,1,65\\HF=-92.8254344\MP2=-93.1555287\\@

 Total job time:  5.37s(wall), 5.29s(cpu) 
 Tue May  6 13:01:02 2014

        *************************************************************
        *                                                           *
        *  Thank you very much for using Q-Chem.  Have a nice day.  *
        *                                                           *
        *************************************************************


