                  Welcome to Q-Chem
     A Quantum Leap Into The Future Of Chemistry

 Y. Shao, L. Fusti-Molnar, Y. Jung, J. Kussmann, C. Ochsenfeld, S. T. Brown, 
 A. T. B. Gilbert, L. V. Slipchenko, S. V. Levchenko, D. P. O'Neill, 
 R. A. DiStasio Jr., R. C. Lochan, T. Wang, G. J. O. Beran, N. A. Besley, 
 J. M. Herbert, C. Y. Lin, T. Van Voorhis, S. H. Chien, A. Sodt, R. P. Steele, 
 V. A. Rassolov, P. E. Maslen, P. P. Korambath, R. D. Adamson, B. Austin, 
 J. Baker, E. F. C. Byrd, H. Dachsel, R. J. Doerksen, A. Dreuw, B. D. Dunietz, 
 A. D. Dutoi, T. R. Furlani, S. R. Gwaltney, A. Heyden, S. Hirata, C.-P. Hsu, 
 G. Kedziora, R. Z. Khaliullin, P. Klunzinger, A. M. Lee, M. S. Lee, W. Liang, 
 I. Lotan, N. Nair, B. Peters, E. I. Proynov, P. A. Pieniazek, Y. M. Rhee, 
 J. Ritchie, E. Rosta, C. D. Sherrill, A. C. Simmonett, J. E. Subotnik, 
 H. L. Woodcock III, W. Zhang, A. T. Bell, A. K. Chakraborty, D. M. Chipman, 
 F. J. Keil, A. Warshel, W. J. Hehre, H. F. Schaefer III, J. Kong, 
 A. I. Krylov, P. M. W. Gill, M. Head-Gordon

 Additional authors for Version 3.1: 
 Z. Gan, Y. Zhao, N. E. Schultz, D. Truhlar, E. Epifanovsky, M. Oana

 Additional authors for Version 3.2: 
 R. Baer, B. R. Brooks, D. Casanova, J.-D. Chai, C.-L. Cheng, C. Cramer, 
 D. Crittenden, A. Ghysels, G. Hawkins, E. G. Hohenstein, C. Kelley, 
 W. Kurlancheek, D. Liotard, E. Livshits, P. Manohar, A. Marenich, 
 D. Neuhauser, R. Olson, M. A. Rohrdanz, K. S. Thanthiriwatte, A. J. W. Thom, 
 V. Vanovschi, C. F. Williams, Q. Wu, Z.-Q. You

 Additional authors for Version 4.0: 
 A. Aspuru-Guzik, Y. Bernard, C. Chang, J. Deng, A. Dreuw, M. Diedenhofen, 
 R. G. Edgar, D. Ghosh, W. A. Goddard III, M. Goldey, L. D. Jacobson, 
 M. Gordon, B. Kaduk, I. Kaliman, K. Khistyaev, R. King, A. Klamt, 
 D. Kosenkov, T. Kus, D. Lambrecht, A. Landau, A. W. Lange, K. Lawler, F. Liu, 
 J. Liu, R. Olivares-Amaya, S. P. Mao, J. Parkhill, N. Russ, M. Schmidt, 
 N. Shenvi, D. Small, Y. C. Su, E. Sundstrom, L. Vogt, O. Vydrov, M. Watson, 
 M. Wormit, X. Xu, S. Yeganeh, I. Y. Zhang, D. Zuev

 Additional authors for Version 4.1: 
 X. Feng, M. W. D. Hanson-Heine, P. Horn, H. Ji, A. Laurent, R. Peverati, 
 N. Mardirossian, N. Sergueev, S. Sharada, P. Zimmerman

 Q-Chem, Version 4.1, Q-Chem, Inc., Pittsburgh, PA (2013).

 Parts of Q-Chem use Armadillo 4.100.2 (Dirt Cruiser).
 http://arma.sourceforge.net/

 MAC (Intel) OSX Version 4.1.2

 Q-chem begins on Wed May  7 14:17:11 2014  

Deborahs-MacBook-Air.local
Host: 0

     Scratch files written to /tmp/qchem30643//
 Apr1114 |Users|Deb|Programs|trunk|libmdc|qstr_info.C -1
Finally everything over in PARseQInput

--------------------------------------------------------------
User input:
--------------------------------------------------------------
$molecule
0 1
C 0.000000 0.000000 -0.488372
H 1.062087 0.000000 -0.614972
H -0.531044 0.919794 -0.614972
H -0.531044 -0.919794 -0.614972
Cl 0.000000 0.000000 1.624501
$end

$rem
JOBTYPE OPT
EXCHANGE HF
CORRELATION MP2
BASIS 6-311G**
$end
--------------------------------------------------------------
 Atom   1: (  0.0000001180,  0.0000000000,  1.3668861923)
         ->(  0.0000000295, -0.0000000511,  1.3668861923)
 Atom   1: (  0.0000000295, -0.0000000511,  1.3668861923)
         ->(  0.0000000295,  0.0000000000,  1.3668861923)
 Atom   1: (  0.0000000295,  0.0000000000,  1.3668861923)
         ->(  0.0000000074,  0.0000000128,  1.3668861923)
 Atom   1: (  0.0000000074,  0.0000000128,  1.3668861923)
         ->( -0.0000000037,  0.0000000064,  1.3668861923)
 Atom   3: ( -0.5310438746, -0.9197940000,  1.4934862232)
         ->( -0.5310435627, -0.9197944316,  1.4934861305)
 Atom   4: ( -0.5310438746,  0.9197940000,  1.4934862232)
         ->( -0.5310435627,  0.9197944316,  1.4934861305)
 Atom   5: ( -0.0000000049, -0.0000000000, -0.7459868077)
         ->( -0.0000000012,  0.0000000021, -0.7459868077)
 ----------------------------------------------------------------
             Standard Nuclear Orientation (Angstroms)
    I     Atom           X                Y                Z
 ----------------------------------------------------------------
    1      C      -0.0000000037     0.0000000064     1.3668861923
    2      H       1.0620871254     0.0000000000     1.4934861305
    3      H      -0.5310435627    -0.9197944316     1.4934861305
    4      H      -0.5310435627     0.9197944316     1.4934861305
    5      Cl     -0.0000000012     0.0000000021    -0.7459868077
 ----------------------------------------------------------------
 Molecular Point Group                 C3v   NOp =  6
 Largest Abelian Subgroup              Cs    NOp =  2
 Nuclear Repulsion Energy =    46.2031927911 hartrees
 There are       13 alpha and       13 beta electrons
 Requested basis set is 6-311G(d,p)
 There are 29 shells and 62 basis functions

Total QAlloc Memory Limit   2000 MB
Mega-Array Size        61 MB
MEM_STATIC part        62 MB
 A cutoff of  1.0D-11 yielded    433 shell pairs
 There are      2013 function pairs (      2150 Cartesian)
 Smallest overlap matrix eigenvalue = 1.30E-02

  Scale SEOQF with 1.000000e+00/1.000000e+00/1.000000e-01

 Standard Electronic Orientation quadrupole field applied
 Nucleus-field energy     =    -0.0000000011 hartrees
 Guess from superposition of atomic densities
 Warning:  Energy on first SCF cycle will be non-variational
 A restricted Hartree-Fock SCF calculation will be
 performed using Pulay DIIS extrapolation
 SCF converges when DIIS error is below 1.0E-08
 ---------------------------------------
  Cycle       Energy         DIIS Error
 ---------------------------------------
    1    -537.6200870818      2.86E+00
    2    -498.6674122654      5.22E-02
    3    -499.0857411718      6.03E-03
    4    -499.1007977447      1.49E-03
    5    -499.1028670009      8.75E-04
    6    -499.1033734361      1.80E-04
    7    -499.1034396802      5.56E-05
    8    -499.1034447743      1.26E-05
    9    -499.1034450162      1.76E-06
   10    -499.1034450194      4.44E-07
   11    -499.1034450195      6.94E-08
   12    -499.1034450196      2.35E-08
   13    -499.1034450196      6.00E-09 Convergence criterion met
 ---------------------------------------
 SCF time:  CPU 0.82 s  wall 0.82 s
 SCF   energy in the final basis set = -499.1034450196
 Total energy in the final basis set = -499.1034450196

 Components of the MP2 correlation energy:
        aaaa  correlation energy =        -0.0392719942 au
        abab  correlation energy =        -0.2802972820 au
        bbbb  correlation energy =        -0.0392719942 au
        non-Brillouin singles    =        -0.0000000000 au

 Total  MP2   correlation energy =        -0.3588412704 au
        MP2         total energy =      -499.4622862900 au

  Entering Z-vector solver.
OV_DIM:  Setting MaxSz  = 637
OV_DIM:  Setting MaxSpc = 637
   1         0           1      0.000578    0.000578
   2         0           1      0.000200    0.000200
   3         0           1      0.000053    0.000053
   4         0           1      0.000011    0.000011
   5         0           1      0.000002    0.000002
   6         1           0      0.000000    0.000000    Roots Converged
 Analysis of SCF Wavefunction

 --------------------------------------------------------------
             Orbital Energies (a.u.) and Symmetries
 --------------------------------------------------------------

 Alpha MOs, Restricted
 -- Occupied --                  
-104.80  -11.34  -10.53   -8.00   -7.99   -7.99   -1.07   -0.95
  1 A1    2 A1    3 A1    4 A1    1 E     1 E     5 A1    6 A1                 
 -0.653  -0.653  -0.466  -0.426  -0.426
  2 E     2 E     7 A1    3 E     3 E                                          
 -- Virtual --                   
  0.086   0.148   0.203   0.203   0.405   0.412   0.412   0.466
  8 A1    9 A1    4 E     4 E    10 A1    5 E     5 E     6 E                  
  0.466   0.527   0.701   0.757   0.757   0.919   0.983   1.122
  6 E    11 A1   12 A1    7 E     7 E    13 A1   14 A1    8 E                  
  1.122   1.188   1.188   1.312   1.322   1.322   1.618   1.637
  8 E     9 E     9 E    15 A1   10 E    10 E     1 A2   11 E                  
  1.637   1.781   2.001   2.025   2.025   2.254   2.254   2.505
 11 E    16 A1   17 A1   12 E    12 E    13 E    13 E    18 A1                 
  2.533   2.533   2.695   2.695   2.755   2.914   2.914   3.107
 14 E    14 E    15 E    15 E    19 A1   16 E    16 E    20 A1                 
  3.229   4.072   4.072  10.188  24.981  26.310  26.310  26.730
 21 A1   17 E    17 E    22 A1   23 A1   18 E    18 E    24 A1                 
219.004
 25 A1                                                                         

 Beta MOs, Restricted
 -- Occupied --                  
-104.80  -11.34  -10.53   -8.00   -7.99   -7.99   -1.07   -0.95
  1 A1    2 A1    3 A1    4 A1    1 E     1 E     5 A1    6 A1                 
 -0.653  -0.653  -0.466  -0.426  -0.426
  2 E     2 E     7 A1    3 E     3 E                                          
 -- Virtual --                   
  0.086   0.148   0.203   0.203   0.405   0.412   0.412   0.466
  8 A1    9 A1    4 E     4 E    10 A1    5 E     5 E     6 E                  
  0.466   0.527   0.701   0.757   0.757   0.919   0.983   1.122
  6 E    11 A1   12 A1    7 E     7 E    13 A1   14 A1    8 E                  
  1.122   1.188   1.188   1.312   1.322   1.322   1.618   1.637
  8 E     9 E     9 E    15 A1   10 E    10 E     1 A2   11 E                  
  1.637   1.781   2.001   2.025   2.025   2.254   2.254   2.505
 11 E    16 A1   17 A1   12 E    12 E    13 E    13 E    18 A1                 
  2.533   2.533   2.695   2.695   2.755   2.914   2.914   3.107
 14 E    14 E    15 E    15 E    19 A1   16 E    16 E    20 A1                 
  3.229   4.072   4.072  10.188  24.981  26.310  26.310  26.730
 21 A1   17 E    17 E    22 A1   23 A1   18 E    18 E    24 A1                 
219.004
 25 A1                                                                         
 --------------------------------------------------------------

          Ground-State Mulliken Net Atomic Charges

     Atom                 Charge (a.u.)
  ----------------------------------------
      1 C                    -0.309729
      2 H                     0.177193
      3 H                     0.177193
      4 H                     0.177193
      5 Cl                   -0.221851
  ----------------------------------------
  Sum of atomic charges =    -0.000000

 -----------------------------------------------------------------
                    Cartesian Multipole Moments
 -----------------------------------------------------------------
    Charge (ESU x 10^10)
                -0.0000
    Dipole Moment (Debye)
         X       0.0000      Y      -0.0000      Z       2.9154
       Tot       2.9154
    Quadrupole Moments (Debye-Ang)
        XX     -20.3837     XY       0.0000     YY     -20.3837
        XZ       0.0000     YZ      -0.0000     ZZ     -18.2333
    Octopole Moments (Debye-Ang^2)
       XXX       1.0810    XXY      -0.0000    XYY      -1.0810
       YYY      -0.0000    XXZ       1.8014    XYZ       0.0000
       YYZ       1.8014    XZZ       0.0000    YZZ      -0.0000
       ZZZ      -0.4328
    Hexadecapole Moments (Debye-Ang^3)
      XXXX     -30.6802   XXXY       0.0000   XXYY     -10.2267
      XYYY       0.0000   YYYY     -30.6802   XXXZ       1.5254
      XXYZ      -0.0000   XYYZ      -1.5254   YYYZ      -0.0000
      XXZZ     -29.7355   XYZZ       0.0000   YYZZ     -29.7355
      XZZZ       0.0000   YZZZ      -0.0000   ZZZZ    -148.2673
 -----------------------------------------------------------------
 DrvMan is completing analytic gradient of the MP2 energy
 MP2 relaxed dipole moment
            1
    1   0.0000000
    2  -0.0000000
    3   1.1470214
	Magnitude:	 1.147 au	 2.915 Debye
 MP2 energy read as -499.462286
 Full Analytical Gradient of MP2 Energy (in au.)
             1             2             3             4             5
    1   -0.00000000   -0.00725902    0.00362951    0.00362951    0.00000000
    2    0.00000001   -0.00000000    0.00628650   -0.00628650   -0.00000000
    3    0.09073211   -0.01255906   -0.01255906   -0.01255906   -0.05305493
 Gradient time:  CPU 0.00 s  wall 0.00 s
 Geometry Optimization Parameters
   NAtoms,    NIC,     NZ,  NCons,   NDum,   NFix, NCnnct, MaxDiis
        5      20       0       0       0       0       0       0


** GEOMETRY OPTIMIZATION IN DELOCALIZED INTERNAL COORDINATES **
   Searching for a Minimum

   Optimization Cycle:   1

                       Coordinates (Angstroms)
     ATOM                X               Y               Z
      1  C         0.0000000000    0.0000000000    1.3668861923
      2  H         1.0620871254    0.0000000000    1.4934861305
      3  H        -0.5310435627   -0.9197944316    1.4934861305
      4  H        -0.5310435627    0.9197944316    1.4934861305
      5  Cl        0.0000000000    0.0000000000   -0.7459868077
   Point Group: c3v   Number of degrees of freedom:     3


   Energy is   -499.462286290


 Attempting to Generate Delocalized Internal Coordinates
 GETINT wrote B to file, NVib is            9
 calling HSSCONV
 HCONV 3*NATOMS:           15
 wrote HINT to file
  writing hessian 

  3 Hessian modes will be used to form the next step
  Hessian Eigenvalues:
     0.114964    0.160000    0.372800

 Minimum Search - Taking Simple RFO Step
 Searching for Lamda that Minimizes Along All modes
 Value Taken    Lamda =  -0.02785084
 Calculated Step too Large.  Step scaled by  0.707608
 Step Taken.  Stepsize is  0.300000

                             Maximum     Tolerance    Cnvgd?
         Gradient           0.066629      0.000300      NO
         Displacement       0.298230      0.001200      NO
         Energy change     *********      0.000001      NO


 New Cartesian Coordinates Obtained by Inverse Iteration

 Displacement from previous Coordinates is:  0.187373
 ----------------------------------------------------------------
             Standard Nuclear Orientation (Angstroms)
    I     Atom           X                Y                Z
 ----------------------------------------------------------------
    1      C       0.0000000000     0.0000000000     1.2917204948
    2      H       1.0579567147     0.0000000000     1.4972279156
    3      H      -0.5289783574    -0.9162173910     1.4972279156
    4      H      -0.5289783574     0.9162173910     1.4972279156
    5      Cl      0.0000000000     0.0000000000    -0.6820464654
 ----------------------------------------------------------------
 Molecular Point Group                 C3v   NOp =  6
 Largest Abelian Subgroup              Cs    NOp =  2
 Nuclear Repulsion Energy =    48.1918351505 hartrees
 There are       13 alpha and       13 beta electrons
 Applying Cartesian multipole field
    Component          Value
    ---------          -----
     (2,0,0)        1.00000E-10
     (0,2,0)        2.00000E-10
     (0,0,2)       -3.00000E-11
 Nucleus-field energy     =    -0.0000000008 hartrees
 Requested basis set is 6-311G(d,p)
 There are 29 shells and 62 basis functions
 A cutoff of  1.0D-11 yielded    435 shell pairs
 There are      2015 function pairs (      2152 Cartesian)
 Smallest overlap matrix eigenvalue = 1.23E-02
 Guess MOs from SCF MO coefficient file
Reading MOs from coefficient file
Reading MOs from coefficient file
 A restricted Hartree-Fock SCF calculation will be
 performed using Pulay DIIS extrapolation
 SCF converges when DIIS error is below 1.0E-08
Geometry optimization detected.  Setting ReadMinima to 0
Setting SaveMinima to 0
 ---------------------------------------
  Cycle       Energy         DIIS Error
 ---------------------------------------
    1    -499.1407454985      6.55E-03
    2    -499.1185266992      9.98E-04
    3    -499.1191899082      3.55E-04
    4    -499.1192766720      1.17E-04
    5    -499.1192959282      3.27E-05
    6    -499.1192976998      1.24E-05
    7    -499.1192978807      2.97E-06
    8    -499.1192978923      4.45E-07
    9    -499.1192978925      6.26E-08
   10    -499.1192978925      1.06E-08
   11    -499.1192978925      3.34E-09 Convergence criterion met
 ---------------------------------------
 SCF time:  CPU 0.94 s  wall 0.94 s
 SCF   energy in the final basis set = -499.1192978925
 Total energy in the final basis set = -499.1192978925

 Components of the MP2 correlation energy:
        aaaa  correlation energy =        -0.0398515897 au
        abab  correlation energy =        -0.2811092030 au
        bbbb  correlation energy =        -0.0398515897 au
        non-Brillouin singles    =        -0.0000000000 au

 Total  MP2   correlation energy =        -0.3608123825 au
        MP2         total energy =      -499.4801102750 au

  Entering Z-vector solver.
OV_DIM:  Setting MaxSz  = 637
OV_DIM:  Setting MaxSpc = 637
   1         0           1      0.000443    0.000443
   2         0           1      0.000140    0.000140
   3         0           1      0.000037    0.000037
   4         0           1      0.000008    0.000008
   5         0           1      0.000001    0.000001
   6         1           0      0.000000    0.000000    Roots Converged
 Analysis of SCF Wavefunction

 --------------------------------------------------------------
             Orbital Energies (a.u.) and Symmetries
 --------------------------------------------------------------

 Alpha MOs, Restricted
 -- Occupied --                  
-104.81  -11.32  -10.54   -8.01   -8.00   -8.00   -1.09   -0.93
  1 A1    2 A1    3 A1    4 A1    1 E     1 E     5 A1    6 A1                 
 -0.638  -0.638  -0.496  -0.433  -0.433
  2 E     2 E     7 A1    3 E     3 E                                          
 -- Virtual --                   
  0.118   0.161   0.206   0.206   0.397   0.421   0.421   0.459
  8 A1    9 A1    4 E     4 E    10 A1    5 E     5 E     6 E                  
  0.459   0.533   0.701   0.763   0.763   0.919   1.006   1.089
  6 E    11 A1   12 A1    7 E     7 E    13 A1   14 A1    8 E                  
  1.089   1.176   1.176   1.300   1.355   1.355   1.635   1.664
  8 E     9 E     9 E    15 A1   10 E    10 E     1 A2   11 E                  
  1.664   1.844   1.990   1.990   2.057   2.314   2.314   2.539
 11 E    16 A1   12 E    12 E    17 A1   13 E    13 E    14 E                  
  2.539   2.546   2.709   2.709   2.734   2.888   2.888   3.097
 14 E    18 A1   15 E    15 E    19 A1   16 E    16 E    20 A1                 
  3.351   4.074   4.074  10.202  24.976  26.315  26.315  26.807
 21 A1   17 E    17 E    22 A1   23 A1   18 E    18 E    24 A1                 
219.021
 25 A1                                                                         

 Beta MOs, Restricted
 -- Occupied --                  
-104.81  -11.32  -10.54   -8.01   -8.00   -8.00   -1.09   -0.93
  1 A1    2 A1    3 A1    4 A1    1 E     1 E     5 A1    6 A1                 
 -0.638  -0.638  -0.496  -0.433  -0.433
  2 E     2 E     7 A1    3 E     3 E                                          
 -- Virtual --                   
  0.118   0.161   0.206   0.206   0.397   0.421   0.421   0.459
  8 A1    9 A1    4 E     4 E    10 A1    5 E     5 E     6 E                  
  0.459   0.533   0.701   0.763   0.763   0.919   1.006   1.089
  6 E    11 A1   12 A1    7 E     7 E    13 A1   14 A1    8 E                  
  1.089   1.176   1.176   1.300   1.355   1.355   1.635   1.664
  8 E     9 E     9 E    15 A1   10 E    10 E     1 A2   11 E                  
  1.664   1.844   1.990   1.990   2.057   2.314   2.314   2.539
 11 E    16 A1   12 E    12 E    17 A1   13 E    13 E    14 E                  
  2.539   2.546   2.709   2.709   2.734   2.888   2.888   3.097
 14 E    18 A1   15 E    15 E    19 A1   16 E    16 E    20 A1                 
  3.351   4.074   4.074  10.202  24.976  26.315  26.315  26.807
 21 A1   17 E    17 E    22 A1   23 A1   18 E    18 E    24 A1                 
219.021
 25 A1                                                                         
 --------------------------------------------------------------

          Ground-State Mulliken Net Atomic Charges

     Atom                 Charge (a.u.)
  ----------------------------------------
      1 C                    -0.314963
      2 H                     0.166685
      3 H                     0.166685
      4 H                     0.166685
      5 Cl                   -0.185091
  ----------------------------------------
  Sum of atomic charges =    -0.000000

 -----------------------------------------------------------------
                    Cartesian Multipole Moments
 -----------------------------------------------------------------
    Charge (ESU x 10^10)
                -0.0000
    Dipole Moment (Debye)
         X       0.0000      Y       0.0000      Z       2.5264
       Tot       2.5264
    Quadrupole Moments (Debye-Ang)
        XX     -20.3302     XY      -0.0000     YY     -20.3302
        XZ       0.0000     YZ       0.0000     ZZ     -18.4101
    Octopole Moments (Debye-Ang^2)
       XXX       1.0122    XXY       0.0000    XYY      -1.0122
       YYY       0.0000    XXZ       1.0174    XYZ      -0.0000
       YYZ       1.0174    XZZ       0.0000    YZZ       0.0000
       ZZZ      -2.7990
    Hexadecapole Moments (Debye-Ang^3)
      XXXX     -30.5648   XXXY      -0.0000   XXYY     -10.1883
      XYYY      -0.0000   YYYY     -30.5648   XXXZ       1.4341
      XXYZ       0.0000   XYYZ      -1.4341   YYYZ       0.0000
      XXZZ     -27.5555   XYZZ      -0.0000   YYZZ     -27.5555
      XZZZ       0.0000   YZZZ       0.0000   ZZZZ    -135.9458
 -----------------------------------------------------------------
 DrvMan is completing analytic gradient of the MP2 energy
 MP2 relaxed dipole moment
            1
    1   0.0000000
    2   0.0000000
    3   0.9939496
	Magnitude:	 0.994 au	 2.526 Debye
 MP2 energy read as -499.480110
 Full Analytical Gradient of MP2 Energy (in au.)
             1             2             3             4             5
    1    0.00000000   -0.00175421    0.00087711    0.00087711   -0.00000000
    2   -0.00000000   -0.00000000    0.00151919   -0.00151919    0.00000000
    3    0.07233098   -0.00990952   -0.00990952   -0.00990952   -0.04260241
 Gradient time:  CPU 0.01 s  wall 0.01 s
 Geometry Optimization Parameters
   NAtoms,    NIC,     NZ,  NCons,   NDum,   NFix, NCnnct, MaxDiis
        5      20       0       0       0       0       0       0

 Cartesian Hessian Update
 Hessian Updated using BFGS Update


** GEOMETRY OPTIMIZATION IN DELOCALIZED INTERNAL COORDINATES **
   Searching for a Minimum

   Optimization Cycle:   2

                       Coordinates (Angstroms)
     ATOM                X               Y               Z
      1  C         0.0000000000    0.0000000000    1.2917204948
      2  H         1.0579567147    0.0000000000    1.4972279156
      3  H        -0.5289783574   -0.9162173910    1.4972279156
      4  H        -0.5289783574    0.9162173910    1.4972279156
      5  Cl        0.0000000000    0.0000000000   -0.6820464654
   Point Group: c3v   Number of degrees of freedom:     3


   Energy is   -499.480110275

 GETINT wrote B to file, NVib is            3
 Hessian Updated using BFGS Update

  3 Hessian modes will be used to form the next step
  Hessian Eigenvalues:
     0.044735    0.150333    0.382345

 Minimum Search - Taking Simple RFO Step
 Searching for Lamda that Minimizes Along All modes
 Value Taken    Lamda =  -0.03319498
 Calculated Step too Large.  Step scaled by  0.462199
 Step Taken.  Stepsize is  0.300000

                             Maximum     Tolerance    Cnvgd?
         Gradient           0.051571      0.000300      NO
         Displacement       0.296062      0.001200      NO
         Energy change     -0.017824      0.000001      NO


 New Cartesian Coordinates Obtained by Inverse Iteration

 Displacement from previous Coordinates is:  0.192870
 ----------------------------------------------------------------
             Standard Nuclear Orientation (Angstroms)
    I     Atom           X                Y                Z
 ----------------------------------------------------------------
    1      C       0.0000000000     0.0000000000     1.2210200270
    2      H       1.0449257186     0.0000000000     1.4974409585
    3      H      -0.5224628593    -0.9049322174     1.4974409585
    4      H      -0.5224628593     0.9049322174     1.4974409585
    5      Cl      0.0000000000     0.0000000000    -0.6119851262
 ----------------------------------------------------------------
 Molecular Point Group                 C3v   NOp =  6
 Largest Abelian Subgroup              Cs    NOp =  2
 Nuclear Repulsion Energy =    50.6009661517 hartrees
 There are       13 alpha and       13 beta electrons
 Applying Cartesian multipole field
    Component          Value
    ---------          -----
     (2,0,0)        1.00000E-10
     (0,2,0)        2.00000E-10
     (0,0,2)       -3.00000E-11
 Nucleus-field energy     =    -0.0000000006 hartrees
 Requested basis set is 6-311G(d,p)
 There are 29 shells and 62 basis functions
 A cutoff of  1.0D-11 yielded    435 shell pairs
 There are      2015 function pairs (      2152 Cartesian)
 Smallest overlap matrix eigenvalue = 1.11E-02
 Guess MOs from SCF MO coefficient file
Reading MOs from coefficient file
Reading MOs from coefficient file
 A restricted Hartree-Fock SCF calculation will be
 performed using Pulay DIIS extrapolation
 SCF converges when DIIS error is below 1.0E-08
Geometry optimization detected.  Setting ReadMinima to 0
Setting SaveMinima to 0
 ---------------------------------------
  Cycle       Energy         DIIS Error
 ---------------------------------------
    1    -499.1651153101      7.89E-03
    2    -499.1283187839      1.05E-03
    3    -499.1290303256      3.70E-04
    4    -499.1291125870      1.08E-04
    5    -499.1291290152      2.81E-05
    6    -499.1291301667      7.69E-06
    7    -499.1291302630      2.27E-06
    8    -499.1291302667      3.72E-07
    9    -499.1291302668      5.69E-08
   10    -499.1291302668      7.68E-09 Convergence criterion met
 ---------------------------------------
 SCF time:  CPU 0.90 s  wall 0.90 s
 SCF   energy in the final basis set = -499.1291302668
 Total energy in the final basis set = -499.1291302668

 Components of the MP2 correlation energy:
        aaaa  correlation energy =        -0.0404690482 au
        abab  correlation energy =        -0.2815196121 au
        bbbb  correlation energy =        -0.0404690482 au
        non-Brillouin singles    =        -0.0000000000 au

 Total  MP2   correlation energy =        -0.3624577085 au
        MP2         total energy =      -499.4915879753 au

  Entering Z-vector solver.
OV_DIM:  Setting MaxSz  = 637
OV_DIM:  Setting MaxSpc = 637
   1         0           1      0.000347    0.000347
   2         0           1      0.000087    0.000087
   3         0           1      0.000023    0.000023
   4         0           1      0.000006    0.000006
   5         0           1      0.000001    0.000001
   6         1           0      0.000000    0.000000    Roots Converged
 Analysis of SCF Wavefunction

 --------------------------------------------------------------
             Orbital Energies (a.u.) and Symmetries
 --------------------------------------------------------------

 Alpha MOs, Restricted
 -- Occupied --                  
-104.82  -11.30  -10.55   -8.01   -8.01   -8.01   -1.12   -0.92
  1 A1    2 A1    3 A1    4 A1    1 E     1 E     5 A1    6 A1                 
 -0.630  -0.630  -0.530  -0.436  -0.436
  2 E     2 E     7 A1    3 E     3 E                                          
 -- Virtual --                   
  0.138   0.186   0.208   0.208   0.395   0.428   0.428   0.454
  8 A1    9 A1    4 E     4 E    10 A1    5 E     5 E     6 E                  
  0.454   0.539   0.706   0.770   0.770   0.907   1.045   1.056
  6 E    11 A1   12 A1    7 E     7 E    13 A1   14 A1    8 E                  
  1.056   1.166   1.166   1.325   1.390   1.390   1.659   1.689
  8 E     9 E     9 E    15 A1   10 E    10 E     1 A2   11 E                  
  1.689   1.900   1.976   1.976   2.135   2.369   2.369   2.550
 11 E    16 A1   12 E    12 E    17 A1   13 E    13 E    14 E                  
  2.550   2.601   2.715   2.718   2.718   2.866   2.866   3.108
 14 E    18 A1   19 A1   15 E    15 E    16 E    16 E    20 A1                 
  3.488   4.095   4.095  10.238  24.976  26.325  26.325  26.850
 21 A1   17 E    17 E    22 A1   23 A1   18 E    18 E    24 A1                 
219.058
 25 A1                                                                         

 Beta MOs, Restricted
 -- Occupied --                  
-104.82  -11.30  -10.55   -8.01   -8.01   -8.01   -1.12   -0.92
  1 A1    2 A1    3 A1    4 A1    1 E     1 E     5 A1    6 A1                 
 -0.630  -0.630  -0.530  -0.436  -0.436
  2 E     2 E     7 A1    3 E     3 E                                          
 -- Virtual --                   
  0.138   0.186   0.208   0.208   0.395   0.428   0.428   0.454
  8 A1    9 A1    4 E     4 E    10 A1    5 E     5 E     6 E                  
  0.454   0.539   0.706   0.770   0.770   0.907   1.045   1.056
  6 E    11 A1   12 A1    7 E     7 E    13 A1   14 A1    8 E                  
  1.056   1.166   1.166   1.325   1.390   1.390   1.659   1.689
  8 E     9 E     9 E    15 A1   10 E    10 E     1 A2   11 E                  
  1.689   1.900   1.976   1.976   2.135   2.369   2.369   2.550
 11 E    16 A1   12 E    12 E    17 A1   13 E    13 E    14 E                  
  2.550   2.601   2.715   2.718   2.718   2.866   2.866   3.108
 14 E    18 A1   19 A1   15 E    15 E    16 E    16 E    20 A1                 
  3.488   4.095   4.095  10.238  24.976  26.325  26.325  26.850
 21 A1   17 E    17 E    22 A1   23 A1   18 E    18 E    24 A1                 
219.058
 25 A1                                                                         
 --------------------------------------------------------------

          Ground-State Mulliken Net Atomic Charges

     Atom                 Charge (a.u.)
  ----------------------------------------
      1 C                    -0.323513
      2 H                     0.155690
      3 H                     0.155690
      4 H                     0.155690
      5 Cl                   -0.143557
  ----------------------------------------
  Sum of atomic charges =    -0.000000

 -----------------------------------------------------------------
                    Cartesian Multipole Moments
 -----------------------------------------------------------------
    Charge (ESU x 10^10)
                -0.0000
    Dipole Moment (Debye)
         X       0.0000      Y       0.0000      Z       2.1396
       Tot       2.1396
    Quadrupole Moments (Debye-Ang)
        XX     -20.2608     XY      -0.0000     YY     -20.2608
        XZ       0.0000     YZ       0.0000     ZZ     -18.6152
    Octopole Moments (Debye-Ang^2)
       XXX       0.9099    XXY      -0.0000    XYY      -0.9099
       YYY      -0.0000    XXZ       0.1105    XYZ       0.0000
       YYZ       0.1105    XZZ       0.0000    YZZ      -0.0000
       ZZZ      -5.2611
    Hexadecapole Moments (Debye-Ang^3)
      XXXX     -30.2947   XXXY       0.0000   XXYY     -10.0982
      XYYY       0.0000   YYYY     -30.2947   XXXZ       1.2797
      XXYZ      -0.0000   XYYZ      -1.2797   YYYZ      -0.0000
      XXZZ     -25.5711   XYZZ       0.0000   YYZZ     -25.5711
      XZZZ       0.0000   YZZZ      -0.0000   ZZZZ    -124.3011
 -----------------------------------------------------------------
 DrvMan is completing analytic gradient of the MP2 energy
 MP2 relaxed dipole moment
            1
    1   0.0000000
    2   0.0000000
    3   0.8417834
	Magnitude:	 0.842 au	 2.140 Debye
 MP2 energy read as -499.491588
 Full Analytical Gradient of MP2 Energy (in au.)
             1             2             3             4             5
    1    0.00000000   -0.00094685    0.00047343    0.00047343   -0.00000000
    2   -0.00000000   -0.00000000    0.00082000   -0.00082000    0.00000000
    3    0.03703390   -0.00788356   -0.00788356   -0.00788356   -0.01338323
 Gradient time:  CPU 0.01 s  wall 0.01 s
 Geometry Optimization Parameters
   NAtoms,    NIC,     NZ,  NCons,   NDum,   NFix, NCnnct, MaxDiis
        5      20       0       0       0       0       0       0

 Cartesian Hessian Update
 Hessian Updated using BFGS Update


** GEOMETRY OPTIMIZATION IN DELOCALIZED INTERNAL COORDINATES **
   Searching for a Minimum

   Optimization Cycle:   3

                       Coordinates (Angstroms)
     ATOM                X               Y               Z
      1  C         0.0000000000    0.0000000000    1.2210200270
      2  H         1.0449257186    0.0000000000    1.4974409585
      3  H        -0.5224628593   -0.9049322174    1.4974409585
      4  H        -0.5224628593    0.9049322174    1.4974409585
      5  Cl        0.0000000000    0.0000000000   -0.6119851262
   Point Group: c3v   Number of degrees of freedom:     3


   Energy is   -499.491587975

 GETINT wrote B to file, NVib is            3
 Hessian Updated using BFGS Update

  3 Hessian modes will be used to form the next step
  Hessian Eigenvalues:
     0.089219    0.162037    0.381142

 Minimum Search - Taking Simple RFO Step
 Searching for Lamda that Minimizes Along All modes
 Value Taken    Lamda =  -0.00660179
 Step Taken.  Stepsize is  0.260737

                             Maximum     Tolerance    Cnvgd?
         Gradient           0.023223      0.000300      NO
         Displacement       0.242742      0.001200      NO
         Energy change     -0.011478      0.000001      NO


 New Cartesian Coordinates Obtained by Inverse Iteration

 Displacement from previous Coordinates is:  0.183254
 ----------------------------------------------------------------
             Standard Nuclear Orientation (Angstroms)
    I     Atom           X                Y                Z
 ----------------------------------------------------------------
    1      C       0.0000000000     0.0000000000     1.1448667539
    2      H       1.0195553656     0.0000000000     1.5207979389
    3      H      -0.5097776828    -0.8829608472     1.5207979389
    4      H      -0.5097776828     0.8829608472     1.5207979389
    5      Cl      0.0000000000     0.0000000000    -0.6059027943
 ----------------------------------------------------------------
 Molecular Point Group                 C3v   NOp =  6
 Largest Abelian Subgroup              Cs    NOp =  2
 Nuclear Repulsion Energy =    51.9375691501 hartrees
 There are       13 alpha and       13 beta electrons
 Applying Cartesian multipole field
    Component          Value
    ---------          -----
     (2,0,0)        1.00000E-10
     (0,2,0)        2.00000E-10
     (0,0,2)       -3.00000E-11
 Nucleus-field energy     =    -0.0000000006 hartrees
 Requested basis set is 6-311G(d,p)
 There are 29 shells and 62 basis functions
 A cutoff of  1.0D-11 yielded    435 shell pairs
 There are      2015 function pairs (      2152 Cartesian)
 Smallest overlap matrix eigenvalue = 1.06E-02
 Guess MOs from SCF MO coefficient file
Reading MOs from coefficient file
Reading MOs from coefficient file
 A restricted Hartree-Fock SCF calculation will be
 performed using Pulay DIIS extrapolation
 SCF converges when DIIS error is below 1.0E-08
Geometry optimization detected.  Setting ReadMinima to 0
Setting SaveMinima to 0
 ---------------------------------------
  Cycle       Energy         DIIS Error
 ---------------------------------------
    1    -499.1502398010      5.95E-03
    2    -499.1293109998      8.15E-04
    3    -499.1297257254      2.94E-04
    4    -499.1297713190      7.70E-05
    5    -499.1297787748      1.92E-05
    6    -499.1297793286      5.53E-06
    7    -499.1297793715      1.32E-06
    8    -499.1297793729      3.30E-07
    9    -499.1297793730      3.36E-08
   10    -499.1297793730      5.80E-09 Convergence criterion met
 ---------------------------------------
 SCF time:  CPU 0.85 s  wall 0.85 s
 SCF   energy in the final basis set = -499.1297793730
 Total energy in the final basis set = -499.1297793730

 Components of the MP2 correlation energy:
        aaaa  correlation energy =        -0.0409263615 au
        abab  correlation energy =        -0.2821326579 au
        bbbb  correlation energy =        -0.0409263615 au
        non-Brillouin singles    =        -0.0000000000 au

 Total  MP2   correlation energy =        -0.3639853808 au
        MP2         total energy =      -499.4937647538 au

  Entering Z-vector solver.
OV_DIM:  Setting MaxSz  = 637
OV_DIM:  Setting MaxSpc = 637
   1         0           1      0.000315    0.000315
   2         0           1      0.000065    0.000065
   3         0           1      0.000015    0.000015
   4         0           1      0.000004    0.000004
   5         1           0      0.000000    0.000000    Roots Converged
 Analysis of SCF Wavefunction

 --------------------------------------------------------------
             Orbital Energies (a.u.) and Symmetries
 --------------------------------------------------------------

 Alpha MOs, Restricted
 -- Occupied --                  
-104.83  -11.29  -10.55   -8.02   -8.02   -8.02   -1.14   -0.92
  1 A1    2 A1    3 A1    4 A1    1 E     1 E     5 A1    6 A1                 
 -0.619  -0.619  -0.559  -0.437  -0.437
  2 E     2 E     7 A1    3 E     3 E                                          
 -- Virtual --                   
  0.144   0.206   0.209   0.209   0.403   0.432   0.432   0.449
  8 A1    9 A1    4 E     4 E    10 A1    5 E     5 E     6 E                  
  0.449   0.539   0.714   0.770   0.770   0.896   1.046   1.046
  6 E    11 A1   12 A1    7 E     7 E    13 A1    8 E     8 E                  
  1.071   1.156   1.156   1.343   1.390   1.390   1.694   1.722
 14 A1    9 E     9 E    15 A1   10 E    10 E     1 A2   11 E                  
  1.722   1.914   1.957   1.957   2.255   2.405   2.405   2.570
 11 E    16 A1   12 E    12 E    17 A1   13 E    13 E    14 E                  
  2.570   2.625   2.676   2.694   2.694   2.839   2.839   3.113
 14 E    18 A1   19 A1   15 E    15 E    16 E    16 E    20 A1                 
  3.604   4.109   4.109  10.272  24.971  26.326  26.326  26.852
 21 A1   17 E    17 E    22 A1   23 A1   18 E    18 E    24 A1                 
219.092
 25 A1                                                                         

 Beta MOs, Restricted
 -- Occupied --                  
-104.83  -11.29  -10.55   -8.02   -8.02   -8.02   -1.14   -0.92
  1 A1    2 A1    3 A1    4 A1    1 E     1 E     5 A1    6 A1                 
 -0.619  -0.619  -0.559  -0.437  -0.437
  2 E     2 E     7 A1    3 E     3 E                                          
 -- Virtual --                   
  0.144   0.206   0.209   0.209   0.403   0.432   0.432   0.449
  8 A1    9 A1    4 E     4 E    10 A1    5 E     5 E     6 E                  
  0.449   0.539   0.714   0.770   0.770   0.896   1.046   1.046
  6 E    11 A1   12 A1    7 E     7 E    13 A1    8 E     8 E                  
  1.071   1.156   1.156   1.343   1.390   1.390   1.694   1.722
 14 A1    9 E     9 E    15 A1   10 E    10 E     1 A2   11 E                  
  1.722   1.914   1.957   1.957   2.255   2.405   2.405   2.570
 11 E    16 A1   12 E    12 E    17 A1   13 E    13 E    14 E                  
  2.570   2.625   2.676   2.694   2.694   2.839   2.839   3.113
 14 E    18 A1   19 A1   15 E    15 E    16 E    16 E    20 A1                 
  3.604   4.109   4.109  10.272  24.971  26.326  26.326  26.852
 21 A1   17 E    17 E    22 A1   23 A1   18 E    18 E    24 A1                 
219.092
 25 A1                                                                         
 --------------------------------------------------------------

          Ground-State Mulliken Net Atomic Charges

     Atom                 Charge (a.u.)
  ----------------------------------------
      1 C                    -0.333314
      2 H                     0.145037
      3 H                     0.145037
      4 H                     0.145037
      5 Cl                   -0.101798
  ----------------------------------------
  Sum of atomic charges =     0.000000

 -----------------------------------------------------------------
                    Cartesian Multipole Moments
 -----------------------------------------------------------------
    Charge (ESU x 10^10)
                 0.0000
    Dipole Moment (Debye)
         X       0.0000      Y       0.0000      Z       1.8833
       Tot       1.8833
    Quadrupole Moments (Debye-Ang)
        XX     -20.3280     XY       0.0000     YY     -20.3280
        XZ       0.0000     YZ      -0.0000     ZZ     -18.5174
    Octopole Moments (Debye-Ang^2)
       XXX       0.7565    XXY       0.0000    XYY      -0.7565
       YYY       0.0000    XXZ      -0.0014    XYZ      -0.0000
       YYZ      -0.0014    XZZ       0.0000    YZZ       0.0000
       ZZZ      -4.5149
    Hexadecapole Moments (Debye-Ang^3)
      XXXX     -30.2286   XXXY       0.0000   XXYY     -10.0762
      XYYY       0.0000   YYYY     -30.2286   XXXZ       1.1041
      XXYZ      -0.0000   XYYZ      -1.1041   YYYZ      -0.0000
      XXZZ     -24.7729   XYZZ       0.0000   YYZZ     -24.7729
      XZZZ       0.0000   YZZZ      -0.0000   ZZZZ    -117.5705
 -----------------------------------------------------------------
 DrvMan is completing analytic gradient of the MP2 energy
 MP2 relaxed dipole moment
            1
    1   0.0000000
    2   0.0000000
    3   0.7409355
	Magnitude:	 0.741 au	 1.883 Debye
 MP2 energy read as -499.493765
 Full Analytical Gradient of MP2 Energy (in au.)
             1             2             3             4             5
    1   -0.00000000   -0.00210604    0.00105302    0.00105302   -0.00000000
    2   -0.00000000   -0.00000000    0.00182389   -0.00182389   -0.00000000
    3   -0.01344413    0.00154107    0.00154107    0.00154107    0.00882092
 Gradient time:  CPU 0.01 s  wall 0.01 s
 Geometry Optimization Parameters
   NAtoms,    NIC,     NZ,  NCons,   NDum,   NFix, NCnnct, MaxDiis
        5      20       0       0       0       0       0       0

 Cartesian Hessian Update
 Hessian Updated using BFGS Update


** GEOMETRY OPTIMIZATION IN DELOCALIZED INTERNAL COORDINATES **
   Searching for a Minimum

   Optimization Cycle:   4

                       Coordinates (Angstroms)
     ATOM                X               Y               Z
      1  C         0.0000000000    0.0000000000    1.1448667539
      2  H         1.0195553656    0.0000000000    1.5207979389
      3  H        -0.5097776828   -0.8829608472    1.5207979389
      4  H        -0.5097776828    0.8829608472    1.5207979389
      5  Cl        0.0000000000    0.0000000000   -0.6059027943
   Point Group: c3v   Number of degrees of freedom:     3


   Energy is   -499.493764754

 GETINT wrote B to file, NVib is            3
 Hessian Updated using BFGS Update

  3 Hessian modes will be used to form the next step
  Hessian Eigenvalues:
     0.133320    0.162312    0.378869

 Minimum Search - Taking Simple RFO Step
 Searching for Lamda that Minimizes Along All modes
 Value Taken    Lamda =  -0.00079465
 Step Taken.  Stepsize is  0.074439

                             Maximum     Tolerance    Cnvgd?
         Gradient           0.010028      0.000300      NO
         Displacement       0.072347      0.001200      NO
         Energy change     -0.002177      0.000001      NO


 New Cartesian Coordinates Obtained by Inverse Iteration

 Displacement from previous Coordinates is:  0.050711
 ----------------------------------------------------------------
             Standard Nuclear Orientation (Angstroms)
    I     Atom           X                Y                Z
 ----------------------------------------------------------------
    1      C       0.0000000000     0.0000000000     1.1634035998
    2      H       1.0279602280     0.0000000000     1.5187244130
    3      H      -0.5139801140    -0.8902396715     1.5187244130
    4      H      -0.5139801140     0.8902396715     1.5187244130
    5      Cl      0.0000000000     0.0000000000    -0.6182190626
 ----------------------------------------------------------------
 Molecular Point Group                 C3v   NOp =  6
 Largest Abelian Subgroup              Cs    NOp =  2
 Nuclear Repulsion Energy =    51.3262871040 hartrees
 There are       13 alpha and       13 beta electrons
 Applying Cartesian multipole field
    Component          Value
    ---------          -----
     (2,0,0)        1.00000E-10
     (0,2,0)        2.00000E-10
     (0,0,2)       -3.00000E-11
 Nucleus-field energy     =    -0.0000000006 hartrees
 Requested basis set is 6-311G(d,p)
 There are 29 shells and 62 basis functions
 A cutoff of  1.0D-11 yielded    435 shell pairs
 There are      2015 function pairs (      2152 Cartesian)
 Smallest overlap matrix eigenvalue = 1.09E-02
 Guess MOs from SCF MO coefficient file
Reading MOs from coefficient file
Reading MOs from coefficient file
 A restricted Hartree-Fock SCF calculation will be
 performed using Pulay DIIS extrapolation
 SCF converges when DIIS error is below 1.0E-08
Geometry optimization detected.  Setting ReadMinima to 0
Setting SaveMinima to 0
 ---------------------------------------
  Cycle       Energy         DIIS Error
 ---------------------------------------
    1    -499.1193492792      2.09E-03
    2    -499.1304522760      2.67E-04
    3    -499.1304947881      9.37E-05
    4    -499.1304992860      2.32E-05
    5    -499.1304999676      6.76E-06
    6    -499.1305000236      2.05E-06
    7    -499.1305000290      8.01E-07
    8    -499.1305000296      8.20E-08
    9    -499.1305000296      1.23E-08
   10    -499.1305000296      4.11E-09 Convergence criterion met
 ---------------------------------------
 SCF time:  CPU 0.86 s  wall 0.87 s
 SCF   energy in the final basis set = -499.1305000296
 Total energy in the final basis set = -499.1305000296

 Components of the MP2 correlation energy:
        aaaa  correlation energy =        -0.0407596478 au
        abab  correlation energy =        -0.2820685497 au
        bbbb  correlation energy =        -0.0407596478 au
        non-Brillouin singles    =        -0.0000000000 au

 Total  MP2   correlation energy =        -0.3635878454 au
        MP2         total energy =      -499.4940878750 au

  Entering Z-vector solver.
OV_DIM:  Setting MaxSz  = 637
OV_DIM:  Setting MaxSpc = 637
   1         0           1      0.000326    0.000326
   2         0           1      0.000070    0.000070
   3         0           1      0.000018    0.000018
   4         0           1      0.000004    0.000004
   5         1           0      0.000000    0.000000    Roots Converged
 Analysis of SCF Wavefunction

 --------------------------------------------------------------
             Orbital Energies (a.u.) and Symmetries
 --------------------------------------------------------------

 Alpha MOs, Restricted
 -- Occupied --                  
-104.83  -11.29  -10.55   -8.02   -8.02   -8.02   -1.13   -0.92
  1 A1    2 A1    3 A1    4 A1    1 E     1 E     5 A1    6 A1                 
 -0.620  -0.620  -0.550  -0.437  -0.437
  2 E     2 E     7 A1    3 E     3 E                                          
 -- Virtual --                   
  0.142   0.199   0.209   0.209   0.401   0.431   0.431   0.450
  8 A1    9 A1    4 E     4 E    10 A1    5 E     5 E     6 E                  
  0.450   0.538   0.709   0.769   0.769   0.898   1.050   1.050
  6 E    11 A1   12 A1    7 E     7 E    13 A1    8 E     8 E                  
  1.062   1.159   1.159   1.333   1.387   1.387   1.683   1.714
 14 A1    9 E     9 E    15 A1   10 E    10 E     1 A2   11 E                  
  1.714   1.905   1.955   1.955   2.225   2.397   2.397   2.565
 11 E    16 A1   12 E    12 E    17 A1   13 E    13 E    14 E                  
  2.565   2.613   2.682   2.701   2.701   2.837   2.837   3.109
 14 E    18 A1   19 A1   15 E    15 E    16 E    16 E    20 A1                 
  3.562   4.100   4.100  10.257  24.965  26.324  26.324  26.847
 21 A1   17 E    17 E    22 A1   23 A1   18 E    18 E    24 A1                 
219.076
 25 A1                                                                         

 Beta MOs, Restricted
 -- Occupied --                  
-104.83  -11.29  -10.55   -8.02   -8.02   -8.02   -1.13   -0.92
  1 A1    2 A1    3 A1    4 A1    1 E     1 E     5 A1    6 A1                 
 -0.620  -0.620  -0.550  -0.437  -0.437
  2 E     2 E     7 A1    3 E     3 E                                          
 -- Virtual --                   
  0.142   0.199   0.209   0.209   0.401   0.431   0.431   0.450
  8 A1    9 A1    4 E     4 E    10 A1    5 E     5 E     6 E                  
  0.450   0.538   0.709   0.769   0.769   0.898   1.050   1.050
  6 E    11 A1   12 A1    7 E     7 E    13 A1    8 E     8 E                  
  1.062   1.159   1.159   1.333   1.387   1.387   1.683   1.714
 14 A1    9 E     9 E    15 A1   10 E    10 E     1 A2   11 E                  
  1.714   1.905   1.955   1.955   2.225   2.397   2.397   2.565
 11 E    16 A1   12 E    12 E    17 A1   13 E    13 E    14 E                  
  2.565   2.613   2.682   2.701   2.701   2.837   2.837   3.109
 14 E    18 A1   19 A1   15 E    15 E    16 E    16 E    20 A1                 
  3.562   4.100   4.100  10.257  24.965  26.324  26.324  26.847
 21 A1   17 E    17 E    22 A1   23 A1   18 E    18 E    24 A1                 
219.076
 25 A1                                                                         
 --------------------------------------------------------------

          Ground-State Mulliken Net Atomic Charges

     Atom                 Charge (a.u.)
  ----------------------------------------
      1 C                    -0.330381
      2 H                     0.148011
      3 H                     0.148011
      4 H                     0.148011
      5 Cl                   -0.113653
  ----------------------------------------
  Sum of atomic charges =     0.000000

 -----------------------------------------------------------------
                    Cartesian Multipole Moments
 -----------------------------------------------------------------
    Charge (ESU x 10^10)
                -0.0000
    Dipole Moment (Debye)
         X       0.0000      Y       0.0000      Z       1.9643
       Tot       1.9643
    Quadrupole Moments (Debye-Ang)
        XX     -20.3329     XY       0.0000     YY     -20.3329
        XZ       0.0000     YZ       0.0000     ZZ     -18.5062
    Octopole Moments (Debye-Ang^2)
       XXX       0.7992    XXY      -0.0000    XYY      -0.7992
       YYY      -0.0000    XXZ       0.1699    XYZ      -0.0000
       YYZ       0.1699    XZZ       0.0000    YZZ       0.0000
       ZZZ      -4.2568
    Hexadecapole Moments (Debye-Ang^3)
      XXXX     -30.3323   XXXY       0.0000   XXYY     -10.1108
      XYYY       0.0000   YYYY     -30.3323   XXXZ       1.1653
      XXYZ       0.0000   XYYZ      -1.1653   YYYZ       0.0000
      XXZZ     -25.1356   XYZZ       0.0000   YYZZ     -25.1356
      XZZZ       0.0000   YZZZ       0.0000   ZZZZ    -120.1020
 -----------------------------------------------------------------
 DrvMan is completing analytic gradient of the MP2 energy
 MP2 relaxed dipole moment
            1
    1   0.0000000
    2   0.0000000
    3   0.7727995
	Magnitude:	 0.773 au	 1.964 Debye
 MP2 energy read as -499.494088
 Full Analytical Gradient of MP2 Energy (in au.)
             1             2             3             4             5
    1    0.00000000   -0.00022101    0.00011050    0.00011050   -0.00000000
    2   -0.00000000    0.00000000    0.00019140   -0.00019140    0.00000000
    3    0.00188385    0.00048367    0.00048367    0.00048367   -0.00333487
 Gradient time:  CPU 0.01 s  wall 0.01 s
 Geometry Optimization Parameters
   NAtoms,    NIC,     NZ,  NCons,   NDum,   NFix, NCnnct, MaxDiis
        5      20       0       0       0       0       0       0

 Cartesian Hessian Update
 Hessian Updated using BFGS Update


** GEOMETRY OPTIMIZATION IN DELOCALIZED INTERNAL COORDINATES **
   Searching for a Minimum

   Optimization Cycle:   5

                       Coordinates (Angstroms)
     ATOM                X               Y               Z
      1  C         0.0000000000    0.0000000000    1.1634035998
      2  H         1.0279602280    0.0000000000    1.5187244130
      3  H        -0.5139801140   -0.8902396715    1.5187244130
      4  H        -0.5139801140    0.8902396715    1.5187244130
      5  Cl        0.0000000000    0.0000000000   -0.6182190626
   Point Group: c3v   Number of degrees of freedom:     3


   Energy is   -499.494087875

 GETINT wrote B to file, NVib is            3
 Hessian Updated using BFGS Update

  3 Hessian modes will be used to form the next step
  Hessian Eigenvalues:
     0.113962    0.222191    0.377608

 Minimum Search - Taking Simple RFO Step
 Searching for Lamda that Minimizes Along All modes
 Value Taken    Lamda =  -0.00006302
 Step Taken.  Stepsize is  0.017713

                             Maximum     Tolerance    Cnvgd?
         Gradient           0.002973      0.000300      NO
         Displacement       0.016297      0.001200      NO
         Energy change     -0.000323      0.000001      NO


 New Cartesian Coordinates Obtained by Inverse Iteration

 Displacement from previous Coordinates is:  0.021153
 ----------------------------------------------------------------
             Standard Nuclear Orientation (Angstroms)
    I     Atom           X                Y                Z
 ----------------------------------------------------------------
    1      C       0.0000000000     0.0000000000     1.1647004234
    2      H       1.0297764697     0.0000000000     1.5153275549
    3      H      -0.5148882348    -0.8918125830     1.5153275549
    4      H      -0.5148882348     0.8918125830     1.5153275549
    5      Cl      0.0000000000     0.0000000000    -0.6093253118
 ----------------------------------------------------------------
 Molecular Point Group                 C3v   NOp =  6
 Largest Abelian Subgroup              Cs    NOp =  2
 Nuclear Repulsion Energy =    51.5024264875 hartrees
 There are       13 alpha and       13 beta electrons
 Applying Cartesian multipole field
    Component          Value
    ---------          -----
     (2,0,0)        1.00000E-10
     (0,2,0)        2.00000E-10
     (0,0,2)       -3.00000E-11
 Nucleus-field energy     =    -0.0000000006 hartrees
 Requested basis set is 6-311G(d,p)
 There are 29 shells and 62 basis functions
 A cutoff of  1.0D-11 yielded    435 shell pairs
 There are      2015 function pairs (      2152 Cartesian)
 Smallest overlap matrix eigenvalue = 1.08E-02
 Guess MOs from SCF MO coefficient file
Reading MOs from coefficient file
Reading MOs from coefficient file
 A restricted Hartree-Fock SCF calculation will be
 performed using Pulay DIIS extrapolation
 SCF converges when DIIS error is below 1.0E-08
Geometry optimization detected.  Setting ReadMinima to 0
Setting SaveMinima to 0
 ---------------------------------------
  Cycle       Energy         DIIS Error
 ---------------------------------------
    1    -499.1323322575      4.78E-04
    2    -499.1304848267      5.38E-05
    3    -499.1304863168      1.74E-05
    4    -499.1304864570      4.20E-06
    5    -499.1304864722      1.53E-06
    6    -499.1304864742      3.43E-07
    7    -499.1304864744      1.08E-07
    8    -499.1304864744      2.08E-08
    9    -499.1304864744      2.93E-09 Convergence criterion met
 ---------------------------------------
 SCF time:  CPU 0.77 s  wall 0.77 s
 SCF   energy in the final basis set = -499.1304864744
 Total energy in the final basis set = -499.1304864744

 Components of the MP2 correlation energy:
        aaaa  correlation energy =        -0.0407883396 au
        abab  correlation energy =        -0.2820430572 au
        bbbb  correlation energy =        -0.0407883396 au
        non-Brillouin singles    =        -0.0000000000 au

 Total  MP2   correlation energy =        -0.3636197364 au
        MP2         total energy =      -499.4941062108 au

  Entering Z-vector solver.
OV_DIM:  Setting MaxSz  = 637
OV_DIM:  Setting MaxSpc = 637
   1         0           1      0.000323    0.000323
   2         0           1      0.000069    0.000069
   3         0           1      0.000017    0.000017
   4         0           1      0.000004    0.000004
   5         1           0      0.000000    0.000000    Roots Converged
 Analysis of SCF Wavefunction

 --------------------------------------------------------------
             Orbital Energies (a.u.) and Symmetries
 --------------------------------------------------------------

 Alpha MOs, Restricted
 -- Occupied --                  
-104.83  -11.29  -10.55   -8.02   -8.02   -8.02   -1.13   -0.92
  1 A1    2 A1    3 A1    4 A1    1 E     1 E     5 A1    6 A1                 
 -0.621  -0.621  -0.551  -0.437  -0.437
  2 E     2 E     7 A1    3 E     3 E                                          
 -- Virtual --                   
  0.142   0.201   0.209   0.209   0.401   0.431   0.431   0.450
  8 A1    9 A1    4 E     4 E    10 A1    5 E     5 E     6 E                  
  0.450   0.539   0.709   0.769   0.769   0.899   1.048   1.048
  6 E    11 A1   12 A1    7 E     7 E    13 A1    8 E     8 E                  
  1.064   1.159   1.159   1.337   1.390   1.390   1.682   1.713
 14 A1    9 E     9 E    15 A1   10 E    10 E     1 A2   11 E                  
  1.713   1.910   1.958   1.958   2.220   2.397   2.397   2.564
 11 E    16 A1   12 E    12 E    17 A1   13 E    13 E    14 E                  
  2.564   2.616   2.683   2.703   2.703   2.837   2.837   3.112
 14 E    18 A1   19 A1   15 E    15 E    16 E    16 E    20 A1                 
  3.567   4.101   4.101  10.260  24.964  26.326  26.326  26.851
 21 A1   17 E    17 E    22 A1   23 A1   18 E    18 E    24 A1                 
219.080
 25 A1                                                                         

 Beta MOs, Restricted
 -- Occupied --                  
-104.83  -11.29  -10.55   -8.02   -8.02   -8.02   -1.13   -0.92
  1 A1    2 A1    3 A1    4 A1    1 E     1 E     5 A1    6 A1                 
 -0.621  -0.621  -0.551  -0.437  -0.437
  2 E     2 E     7 A1    3 E     3 E                                          
 -- Virtual --                   
  0.142   0.201   0.209   0.209   0.401   0.431   0.431   0.450
  8 A1    9 A1    4 E     4 E    10 A1    5 E     5 E     6 E                  
  0.450   0.539   0.709   0.769   0.769   0.899   1.048   1.048
  6 E    11 A1   12 A1    7 E     7 E    13 A1    8 E     8 E                  
  1.064   1.159   1.159   1.337   1.390   1.390   1.682   1.713
 14 A1    9 E     9 E    15 A1   10 E    10 E     1 A2   11 E                  
  1.713   1.910   1.958   1.958   2.220   2.397   2.397   2.564
 11 E    16 A1   12 E    12 E    17 A1   13 E    13 E    14 E                  
  2.564   2.616   2.683   2.703   2.703   2.837   2.837   3.112
 14 E    18 A1   19 A1   15 E    15 E    16 E    16 E    20 A1                 
  3.567   4.101   4.101  10.260  24.964  26.326  26.326  26.851
 21 A1   17 E    17 E    22 A1   23 A1   18 E    18 E    24 A1                 
219.080
 25 A1                                                                         
 --------------------------------------------------------------

          Ground-State Mulliken Net Atomic Charges

     Atom                 Charge (a.u.)
  ----------------------------------------
      1 C                    -0.330919
      2 H                     0.147972
      3 H                     0.147972
      4 H                     0.147972
      5 Cl                   -0.112997
  ----------------------------------------
  Sum of atomic charges =    -0.000000

 -----------------------------------------------------------------
                    Cartesian Multipole Moments
 -----------------------------------------------------------------
    Charge (ESU x 10^10)
                -0.0000
    Dipole Moment (Debye)
         X       0.0000      Y      -0.0000      Z       1.9507
       Tot       1.9507
    Quadrupole Moments (Debye-Ang)
        XX     -20.3131     XY      -0.0000     YY     -20.3131
        XZ       0.0000     YZ       0.0000     ZZ     -18.5534
    Octopole Moments (Debye-Ang^2)
       XXX       0.8064    XXY       0.0000    XYY      -0.8064
       YYY       0.0000    XXZ       0.0557    XYZ      -0.0000
       YYZ       0.0557    XZZ       0.0000    YZZ       0.0000
       ZZZ      -4.6941
    Hexadecapole Moments (Debye-Ang^3)
      XXXX     -30.3074   XXXY      -0.0000   XXYY     -10.1025
      XYYY      -0.0000   YYYY     -30.3074   XXXZ       1.1672
      XXYZ       0.0000   XYYZ      -1.1672   YYYZ       0.0000
      XXZZ     -25.0097   XYZZ      -0.0000   YYZZ     -25.0097
      XZZZ       0.0000   YZZZ       0.0000   ZZZZ    -119.6028
 -----------------------------------------------------------------
 DrvMan is completing analytic gradient of the MP2 energy
 MP2 relaxed dipole moment
            1
    1   0.0000000
    2  -0.0000000
    3   0.7674695
	Magnitude:	 0.767 au	 1.951 Debye
 MP2 energy read as -499.494106
 Full Analytical Gradient of MP2 Energy (in au.)
             1             2             3             4             5
    1    0.00000000    0.00028976   -0.00014488   -0.00014488   -0.00000000
    2   -0.00000000    0.00000000   -0.00025094    0.00025094    0.00000000
    3    0.00037082   -0.00042560   -0.00042560   -0.00042560    0.00090599
 Gradient time:  CPU 0.00 s  wall 0.01 s
 Geometry Optimization Parameters
   NAtoms,    NIC,     NZ,  NCons,   NDum,   NFix, NCnnct, MaxDiis
        5      20       0       0       0       0       0       0

 Cartesian Hessian Update
 Hessian Updated using BFGS Update


** GEOMETRY OPTIMIZATION IN DELOCALIZED INTERNAL COORDINATES **
   Searching for a Minimum

   Optimization Cycle:   6

                       Coordinates (Angstroms)
     ATOM                X               Y               Z
      1  C         0.0000000000    0.0000000000    1.1647004234
      2  H         1.0297764697    0.0000000000    1.5153275549
      3  H        -0.5148882348   -0.8918125830    1.5153275549
      4  H        -0.5148882348    0.8918125830    1.5153275549
      5  Cl        0.0000000000    0.0000000000   -0.6093253118
   Point Group: c3v   Number of degrees of freedom:     3


   Energy is   -499.494106211

 GETINT wrote B to file, NVib is            3
 Hessian Updated using BFGS Update

  3 Hessian modes will be used to form the next step
  Hessian Eigenvalues:
     0.125893    0.288085    0.378117

 Minimum Search - Taking Simple RFO Step
 Searching for Lamda that Minimizes Along All modes
 Value Taken    Lamda =  -0.00001147
 Step Taken.  Stepsize is  0.007461

                             Maximum     Tolerance    Cnvgd?
         Gradient           0.001656      0.000300      NO
         Displacement       0.007032      0.001200      NO
         Energy change     -0.000018      0.000001      NO


 New Cartesian Coordinates Obtained by Inverse Iteration

 Displacement from previous Coordinates is:  0.008805
 ----------------------------------------------------------------
             Standard Nuclear Orientation (Angstroms)
    I     Atom           X                Y                Z
 ----------------------------------------------------------------
    1      C       0.0000000000     0.0000000000     1.1628784341
    2      H       1.0285249200     0.0000000000     1.5168183700
    3      H      -0.5142624600    -0.8907287091     1.5168183700
    4      H      -0.5142624600     0.8907287091     1.5168183700
    5      Cl      0.0000000000     0.0000000000    -0.6119757678
 ----------------------------------------------------------------
 Molecular Point Group                 C3v   NOp =  6
 Largest Abelian Subgroup              Cs    NOp =  2
 Nuclear Repulsion Energy =    51.4748158235 hartrees
 There are       13 alpha and       13 beta electrons
 Applying Cartesian multipole field
    Component          Value
    ---------          -----
     (2,0,0)        1.00000E-10
     (0,2,0)        2.00000E-10
     (0,0,2)       -3.00000E-11
 Nucleus-field energy     =    -0.0000000006 hartrees
 Requested basis set is 6-311G(d,p)
 There are 29 shells and 62 basis functions
 A cutoff of  1.0D-11 yielded    435 shell pairs
 There are      2015 function pairs (      2152 Cartesian)
 Smallest overlap matrix eigenvalue = 1.09E-02
 Guess MOs from SCF MO coefficient file
Reading MOs from coefficient file
Reading MOs from coefficient file
 A restricted Hartree-Fock SCF calculation will be
 performed using Pulay DIIS extrapolation
 SCF converges when DIIS error is below 1.0E-08
Geometry optimization detected.  Setting ReadMinima to 0
Setting SaveMinima to 0
 ---------------------------------------
  Cycle       Energy         DIIS Error
 ---------------------------------------
    1    -499.1305222989      7.09E-05
    2    -499.1304770144      1.35E-05
    3    -499.1304771048      5.44E-06
    4    -499.1304771163      8.36E-07
    5    -499.1304771168      2.69E-07
    6    -499.1304771169      1.00E-07
    7    -499.1304771169      2.59E-08
    8    -499.1304771169      5.16E-09 Convergence criterion met
 ---------------------------------------
 SCF time:  CPU 0.72 s  wall 0.72 s
 SCF   energy in the final basis set = -499.1304771169
 Total energy in the final basis set = -499.1304771169

 Components of the MP2 correlation energy:
        aaaa  correlation energy =        -0.0407883470 au
        abab  correlation energy =        -0.2820578971 au
        bbbb  correlation energy =        -0.0407883470 au
        non-Brillouin singles    =        -0.0000000000 au

 Total  MP2   correlation energy =        -0.3636345911 au
        MP2         total energy =      -499.4941117080 au

  Entering Z-vector solver.
OV_DIM:  Setting MaxSz  = 637
OV_DIM:  Setting MaxSpc = 637
   1         0           1      0.000323    0.000323
   2         0           1      0.000069    0.000069
   3         0           1      0.000017    0.000017
   4         0           1      0.000004    0.000004
   5         1           0      0.000000    0.000000    Roots Converged
 Analysis of SCF Wavefunction

 --------------------------------------------------------------
             Orbital Energies (a.u.) and Symmetries
 --------------------------------------------------------------

 Alpha MOs, Restricted
 -- Occupied --                  
-104.83  -11.29  -10.55   -8.02   -8.02   -8.02   -1.13   -0.92
  1 A1    2 A1    3 A1    4 A1    1 E     1 E     5 A1    6 A1                 
 -0.620  -0.620  -0.551  -0.437  -0.437
  2 E     2 E     7 A1    3 E     3 E                                          
 -- Virtual --                   
  0.142   0.201   0.209   0.209   0.401   0.431   0.431   0.450
  8 A1    9 A1    4 E     4 E    10 A1    5 E     5 E     6 E                  
  0.450   0.538   0.709   0.769   0.769   0.898   1.049   1.049
  6 E    11 A1   12 A1    7 E     7 E    13 A1    8 E     8 E                  
  1.064   1.159   1.159   1.336   1.389   1.389   1.683   1.714
 14 A1    9 E     9 E    15 A1   10 E    10 E     1 A2   11 E                  
  1.714   1.908   1.957   1.957   2.224   2.398   2.398   2.565
 11 E    16 A1   12 E    12 E    17 A1   13 E    13 E    14 E                  
  2.565   2.616   2.682   2.702   2.702   2.837   2.837   3.111
 14 E    18 A1   19 A1   15 E    15 E    16 E    16 E    20 A1                 
  3.568   4.101   4.101  10.260  24.964  26.325  26.325  26.850
 21 A1   17 E    17 E    22 A1   23 A1   18 E    18 E    24 A1                 
219.080
 25 A1                                                                         

 Beta MOs, Restricted
 -- Occupied --                  
-104.83  -11.29  -10.55   -8.02   -8.02   -8.02   -1.13   -0.92
  1 A1    2 A1    3 A1    4 A1    1 E     1 E     5 A1    6 A1                 
 -0.620  -0.620  -0.551  -0.437  -0.437
  2 E     2 E     7 A1    3 E     3 E                                          
 -- Virtual --                   
  0.142   0.201   0.209   0.209   0.401   0.431   0.431   0.450
  8 A1    9 A1    4 E     4 E    10 A1    5 E     5 E     6 E                  
  0.450   0.538   0.709   0.769   0.769   0.898   1.049   1.049
  6 E    11 A1   12 A1    7 E     7 E    13 A1    8 E     8 E                  
  1.064   1.159   1.159   1.336   1.389   1.389   1.683   1.714
 14 A1    9 E     9 E    15 A1   10 E    10 E     1 A2   11 E                  
  1.714   1.908   1.957   1.957   2.224   2.398   2.398   2.565
 11 E    16 A1   12 E    12 E    17 A1   13 E    13 E    14 E                  
  2.565   2.616   2.682   2.702   2.702   2.837   2.837   3.111
 14 E    18 A1   19 A1   15 E    15 E    16 E    16 E    20 A1                 
  3.568   4.101   4.101  10.260  24.964  26.325  26.325  26.850
 21 A1   17 E    17 E    22 A1   23 A1   18 E    18 E    24 A1                 
219.080
 25 A1                                                                         
 --------------------------------------------------------------

          Ground-State Mulliken Net Atomic Charges

     Atom                 Charge (a.u.)
  ----------------------------------------
      1 C                    -0.330916
      2 H                     0.147781
      3 H                     0.147781
      4 H                     0.147781
      5 Cl                   -0.112428
  ----------------------------------------
  Sum of atomic charges =     0.000000

 -----------------------------------------------------------------
                    Cartesian Multipole Moments
 -----------------------------------------------------------------
    Charge (ESU x 10^10)
                -0.0000
    Dipole Moment (Debye)
         X       0.0000      Y      -0.0000      Z       1.9503
       Tot       1.9503
    Quadrupole Moments (Debye-Ang)
        XX     -20.3206     XY       0.0000     YY     -20.3206
        XZ       0.0000     YZ      -0.0000     ZZ     -18.5357
    Octopole Moments (Debye-Ang^2)
       XXX       0.8007    XXY      -0.0000    XYY      -0.8007
       YYY      -0.0000    XXZ       0.0889    XYZ       0.0000
       YYZ       0.0889    XZZ       0.0000    YZZ      -0.0000
       ZZZ      -4.5403
    Hexadecapole Moments (Debye-Ang^3)
      XXXX     -30.3108   XXXY       0.0000   XXYY     -10.1036
      XYYY       0.0000   YYYY     -30.3108   XXXZ       1.1624
      XXYZ      -0.0000   XYYZ      -1.1624   YYYZ      -0.0000
      XXZZ     -25.0334   XYZZ       0.0000   YYZZ     -25.0334
      XZZZ       0.0000   YZZZ      -0.0000   ZZZZ    -119.6218
 -----------------------------------------------------------------
 DrvMan is completing analytic gradient of the MP2 energy
 MP2 relaxed dipole moment
            1
    1   0.0000000
    2  -0.0000000
    3   0.7673043
	Magnitude:	 0.767 au	 1.950 Debye
 MP2 energy read as -499.494112
 Full Analytical Gradient of MP2 Energy (in au.)
             1             2             3             4             5
    1    0.00000000   -0.00001407    0.00000704    0.00000704   -0.00000000
    2   -0.00000000    0.00000000    0.00001219   -0.00001219   -0.00000000
    3   -0.00007199    0.00001560    0.00001560    0.00001560    0.00002518
 Gradient time:  CPU 0.01 s  wall 0.01 s
 Geometry Optimization Parameters
   NAtoms,    NIC,     NZ,  NCons,   NDum,   NFix, NCnnct, MaxDiis
        5      20       0       0       0       0       0       0

 Cartesian Hessian Update
 Hessian Updated using BFGS Update


** GEOMETRY OPTIMIZATION IN DELOCALIZED INTERNAL COORDINATES **
   Searching for a Minimum

   Optimization Cycle:   7

                       Coordinates (Angstroms)
     ATOM                X               Y               Z
      1  C         0.0000000000    0.0000000000    1.1628784341
      2  H         1.0285249200    0.0000000000    1.5168183700
      3  H        -0.5142624600   -0.8907287091    1.5168183700
      4  H        -0.5142624600    0.8907287091    1.5168183700
      5  Cl        0.0000000000    0.0000000000   -0.6119757678
   Point Group: c3v   Number of degrees of freedom:     3


   Energy is   -499.494111708

 GETINT wrote B to file, NVib is            3
 Hessian Updated using BFGS Update

  3 Hessian modes will be used to form the next step
  Hessian Eigenvalues:
     0.131366    0.284002    0.378911

 Minimum Search - Taking Simple RFO Step
 Searching for Lamda that Minimizes Along All modes
 Value Taken    Lamda =   0.00000000
 Step Taken.  Stepsize is  0.000439

                             Maximum     Tolerance    Cnvgd?
         Gradient           0.000047      0.000300     YES
         Displacement       0.000379      0.001200     YES
         Energy change     -0.000005      0.000001      NO


                       Distance Matrix (Angstroms)
             C (  1)   H (  2)   H (  3)   H (  4)
   H (  2)  1.087721
   H (  3)  1.087721  1.781457
   H (  4)  1.087721  1.781457  1.781457
   Cl(  5)  1.774854  2.364239  2.364239  2.364239

 Final energy is   -499.49411170800545     


 ******************************
 **  OPTIMIZATION CONVERGED  **
 ******************************

Z-matrix Print:
$molecule
0 1
Cl
C  1 1.774854
H  2 1.087721 1 108.989561
H  2 1.087721 1 108.989561 3 -120.000000 0
H  2 1.087721 1 108.989561 3 120.000000 0
$end

 Analysis of SCF Wavefunction

 --------------------------------------------------------------
             Orbital Energies (a.u.) and Symmetries
 --------------------------------------------------------------

 Alpha MOs, Restricted
 -- Occupied --                  
-104.83  -11.29  -10.55   -8.02   -8.02   -8.02   -1.13   -0.92
  1 A1    2 A1    3 A1    4 A1    1 E     1 E     5 A1    6 A1                 
 -0.620  -0.620  -0.551  -0.437  -0.437
  2 E     2 E     7 A1    3 E     3 E                                          
 -- Virtual --                   
  0.142   0.201   0.209   0.209   0.401   0.431   0.431   0.450
  8 A1    9 A1    4 E     4 E    10 A1    5 E     5 E     6 E                  
  0.450   0.538   0.709   0.769   0.769   0.898   1.049   1.049
  6 E    11 A1   12 A1    7 E     7 E    13 A1    8 E     8 E                  
  1.064   1.159   1.159   1.336   1.389   1.389   1.683   1.714
 14 A1    9 E     9 E    15 A1   10 E    10 E     1 A2   11 E                  
  1.714   1.908   1.957   1.957   2.224   2.398   2.398   2.565
 11 E    16 A1   12 E    12 E    17 A1   13 E    13 E    14 E                  
  2.565   2.616   2.682   2.702   2.702   2.837   2.837   3.111
 14 E    18 A1   19 A1   15 E    15 E    16 E    16 E    20 A1                 
  3.568   4.101   4.101  10.260  24.964  26.325  26.325  26.850
 21 A1   17 E    17 E    22 A1   23 A1   18 E    18 E    24 A1                 
219.080
 25 A1                                                                         

 Beta MOs, Restricted
 -- Occupied --                  
-104.83  -11.29  -10.55   -8.02   -8.02   -8.02   -1.13   -0.92
  1 A1    2 A1    3 A1    4 A1    1 E     1 E     5 A1    6 A1                 
 -0.620  -0.620  -0.551  -0.437  -0.437
  2 E     2 E     7 A1    3 E     3 E                                          
 -- Virtual --                   
  0.142   0.201   0.209   0.209   0.401   0.431   0.431   0.450
  8 A1    9 A1    4 E     4 E    10 A1    5 E     5 E     6 E                  
  0.450   0.538   0.709   0.769   0.769   0.898   1.049   1.049
  6 E    11 A1   12 A1    7 E     7 E    13 A1    8 E     8 E                  
  1.064   1.159   1.159   1.336   1.389   1.389   1.683   1.714
 14 A1    9 E     9 E    15 A1   10 E    10 E     1 A2   11 E                  
  1.714   1.908   1.957   1.957   2.224   2.398   2.398   2.565
 11 E    16 A1   12 E    12 E    17 A1   13 E    13 E    14 E                  
  2.565   2.616   2.682   2.702   2.702   2.837   2.837   3.111
 14 E    18 A1   19 A1   15 E    15 E    16 E    16 E    20 A1                 
  3.568   4.101   4.101  10.260  24.964  26.325  26.325  26.850
 21 A1   17 E    17 E    22 A1   23 A1   18 E    18 E    24 A1                 
219.080
 25 A1                                                                         
 --------------------------------------------------------------

          Ground-State Mulliken Net Atomic Charges

     Atom                 Charge (a.u.)
  ----------------------------------------
      1 C                    -0.330916
      2 H                     0.147781
      3 H                     0.147781
      4 H                     0.147781
      5 Cl                   -0.112428
  ----------------------------------------
  Sum of atomic charges =     0.000000

 -----------------------------------------------------------------
                    Cartesian Multipole Moments
 -----------------------------------------------------------------
    Charge (ESU x 10^10)
                -0.0000
    Dipole Moment (Debye)
         X       0.0000      Y      -0.0000      Z       1.9503
       Tot       1.9503
    Quadrupole Moments (Debye-Ang)
        XX     -20.3206     XY       0.0000     YY     -20.3206
        XZ       0.0000     YZ      -0.0000     ZZ     -18.5357
    Octopole Moments (Debye-Ang^2)
       XXX       0.8007    XXY      -0.0000    XYY      -0.8007
       YYY      -0.0000    XXZ       0.0889    XYZ       0.0000
       YYZ       0.0889    XZZ       0.0000    YZZ      -0.0000
       ZZZ      -4.5403
    Hexadecapole Moments (Debye-Ang^3)
      XXXX     -30.3108   XXXY       0.0000   XXYY     -10.1036
      XYYY       0.0000   YYYY     -30.3108   XXXZ       1.1624
      XXYZ      -0.0000   XYYZ      -1.1624   YYYZ      -0.0000
      XXZZ     -25.0334   XYZZ       0.0000   YYZZ     -25.0334
      XZZZ       0.0000   YZZZ      -0.0000   ZZZZ    -119.6218
 -----------------------------------------------------------------
Archival summary:
1\1\Deborahs-MacBook-Air.local\OPT\MP2\6-311G**\l113\WedMay714:17:392014WedMay714:17:392014\0\\#,OPT,MP2,6-311G**,\\0,1\Cl\C,1,1.77485\H,2,1.08772,1,108.99\H,2,1.08772,1,108.99,3,-120,0\H,2,1.08772,1,108.99,3,120,0\\HF=-499.130477\MP2=-499.494112\\@

 Total job time:  27.98s(wall), 27.72s(cpu) 
 Wed May  7 14:17:39 2014

        *************************************************************
        *                                                           *
        *  Thank you very much for using Q-Chem.  Have a nice day.  *
        *                                                           *
        *************************************************************


 
User input: 2 of 2 
 
                  Welcome to Q-Chem
     A Quantum Leap Into The Future Of Chemistry

 Y. Shao, L. Fusti-Molnar, Y. Jung, J. Kussmann, C. Ochsenfeld, S. T. Brown, 
 A. T. B. Gilbert, L. V. Slipchenko, S. V. Levchenko, D. P. O'Neill, 
 R. A. DiStasio Jr., R. C. Lochan, T. Wang, G. J. O. Beran, N. A. Besley, 
 J. M. Herbert, C. Y. Lin, T. Van Voorhis, S. H. Chien, A. Sodt, R. P. Steele, 
 V. A. Rassolov, P. E. Maslen, P. P. Korambath, R. D. Adamson, B. Austin, 
 J. Baker, E. F. C. Byrd, H. Dachsel, R. J. Doerksen, A. Dreuw, B. D. Dunietz, 
 A. D. Dutoi, T. R. Furlani, S. R. Gwaltney, A. Heyden, S. Hirata, C.-P. Hsu, 
 G. Kedziora, R. Z. Khaliullin, P. Klunzinger, A. M. Lee, M. S. Lee, W. Liang, 
 I. Lotan, N. Nair, B. Peters, E. I. Proynov, P. A. Pieniazek, Y. M. Rhee, 
 J. Ritchie, E. Rosta, C. D. Sherrill, A. C. Simmonett, J. E. Subotnik, 
 H. L. Woodcock III, W. Zhang, A. T. Bell, A. K. Chakraborty, D. M. Chipman, 
 F. J. Keil, A. Warshel, W. J. Hehre, H. F. Schaefer III, J. Kong, 
 A. I. Krylov, P. M. W. Gill, M. Head-Gordon

 Additional authors for Version 3.1: 
 Z. Gan, Y. Zhao, N. E. Schultz, D. Truhlar, E. Epifanovsky, M. Oana

 Additional authors for Version 3.2: 
[...]
 MP2 relaxed dipole moment
            1
    1  -0.0000000
    2   0.0000000
    3   0.7681694
	Magnitude:	 0.768 au	 1.952 Debye
 MP2 energy read as -499.494111
 Full Analytical Gradient of MP2 Energy (in au.)
             1             2             3             4             5
    1    0.00000000   -0.00002234    0.00001117    0.00001117   -0.00000000
    2    0.00000000    0.00000000    0.00001935   -0.00001935   -0.00000000
    3    0.00026443    0.00006122    0.00006122    0.00006122   -0.00044809
 Gradient time:  CPU 0.00 s  wall 0.00 s
Dipole drv :
gprntSymmMtrx error report: 
 Final Hessian.
            1           2           3           4           5           6
    1   0.5872029   0.0000000   0.0000005  -0.3164691   0.0000000  -0.0852322
    2   0.0000000   0.5872025  -0.0000002   0.0000000  -0.0511065  -0.0000001
    3   0.0000005  -0.0000002   0.3917016  -0.0856913   0.0000000  -0.0710548
    4  -0.3164691   0.0000000  -0.0856913   0.3323764   0.0000000   0.0896122
    5   0.0000000  -0.0511065   0.0000000   0.0000000   0.0463367   0.0000004
    6  -0.0852322  -0.0000001  -0.0710548   0.0896122   0.0000004   0.0845398
    7  -0.1174469  -0.1149056   0.0428455  -0.0116117  -0.0256604   0.0098589
    8  -0.1149053  -0.2501283   0.0742106   0.0022570   0.0019002  -0.0009063
    9   0.0426159   0.0738135  -0.0710541  -0.0041443  -0.0089905   0.0053435
   10  -0.1174469   0.1149056   0.0428456  -0.0116117   0.0256604   0.0098582
   11   0.1149053  -0.2501283  -0.0742111  -0.0022570   0.0019002   0.0009062
   12   0.0426161  -0.0738134  -0.0710553  -0.0041446   0.0089912   0.0053435
   13  -0.0358429   0.0000000   0.0000006   0.0073162   0.0000000  -0.0240991
   14   0.0000000  -0.0358406   0.0000000   0.0000000   0.0009691   0.0000000
   15  -0.0000001   0.0000020  -0.1785351   0.0043681  -0.0000002  -0.0241724
            7           8           9          10          11          12
    1  -0.1174469  -0.1149053   0.0426159  -0.1174469   0.1149053   0.0426161
    2  -0.1149056  -0.2501283   0.0738135   0.1149056  -0.2501283  -0.0738134
    3   0.0428455   0.0742106  -0.0710541   0.0428456  -0.0742111  -0.0710553
    4  -0.0116117   0.0022570  -0.0041443  -0.0116117  -0.0022570  -0.0041446
    5  -0.0256604   0.0019002  -0.0089905   0.0256604   0.0019002   0.0089912
    6   0.0098589  -0.0009063   0.0053435   0.0098582   0.0009062   0.0053435
    7   0.1178466   0.1238588  -0.0448058   0.0086562   0.0139587  -0.0057139
    8   0.1238588   0.2608664  -0.0776067  -0.0139587  -0.0183677   0.0080844
    9  -0.0448058  -0.0776067   0.0845398  -0.0057143  -0.0080849   0.0053435
   10   0.0086562  -0.0139587  -0.0057143   0.1178466  -0.1238588  -0.0448064
   11   0.0139587  -0.0183677  -0.0080849  -0.1238588   0.2608664   0.0776063
   12  -0.0057139   0.0080844   0.0053435  -0.0448064   0.0776063   0.0845398
   13   0.0025559   0.0027487   0.0120492   0.0025559  -0.0027487   0.0120494
   14   0.0027485   0.0057296   0.0208704  -0.0027485   0.0057296  -0.0208703
   15  -0.0021842  -0.0037833  -0.0241741  -0.0021839   0.0037825  -0.0241707
           13          14          15
    1  -0.0358429   0.0000000  -0.0000001
    2   0.0000000  -0.0358406   0.0000020
    3   0.0000006   0.0000000  -0.1785351
    4   0.0073162   0.0000000   0.0043681
    5   0.0000000   0.0009691  -0.0000002
    6  -0.0240991   0.0000000  -0.0241724
    7   0.0025559   0.0027485  -0.0021842
    8   0.0027487   0.0057296  -0.0037833
    9   0.0120492   0.0208704  -0.0241741
   10   0.0025559  -0.0027485  -0.0021839
   11  -0.0027487   0.0057296   0.0037825
   12   0.0120494  -0.0208703  -0.0241707
   13   0.0234173   0.0000000   0.0000000
   14   0.0000000   0.0234130  -0.0000010
   15   0.0000000  -0.0000010   0.2510509
 ----------------------------------------------------------------
             Standard Nuclear Orientation (Angstroms)
    I     Atom           X                Y                Z
 ----------------------------------------------------------------
    1      C       0.0000000000     0.0000000000     1.1196423701
    2      H       1.0285249200     0.0000000000     1.4735823060
    3      H      -0.5142624600    -0.8907287091     1.4735823060
    4      H      -0.5142624600     0.8907287091     1.4735823060
    5      Cl      0.0000000000     0.0000000000    -0.6552118317
 ----------------------------------------------------------------
 Nuclear Repulsion Energy =    51.4748158235 hartrees
 There are       13 alpha and       13 beta electrons
 old dipole drv.
            1           2           3           4           5           6
    1   0.1042954   0.0000000  -0.0000000  -0.0478723   0.0000000  -0.0613433
    2  -0.0000000   0.1042853  -0.0000170  -0.0000000   0.0874071   0.0000032
    3   0.0000037   0.0000000   0.6699986  -0.0612522   0.0000000  -0.0707076
            7           8           9          10          11          12
    1   0.0535872  -0.0585777   0.0306744   0.0535872   0.0585777   0.0306689
    2  -0.0585777  -0.0140524   0.0531232   0.0585777  -0.0140524  -0.0531264
    3   0.0306261   0.0530459  -0.0707076   0.0306261  -0.0530459  -0.0707076
           13          14          15
    1  -0.1636173   0.0000000   0.0000000
    2   0.0000000  -0.1636162   0.0000127
    3  -0.0000078   0.0000000  -0.4579688
 New transposed dipole drv.
            1           2           3
    1   0.1042954  -0.0000000   0.0000037
    2   0.0000000   0.1042853   0.0000000
    3  -0.0000000  -0.0000170   0.6699986
    4  -0.0478723  -0.0000000  -0.0612522
    5   0.0000000   0.0874071   0.0000000
    6  -0.0613433   0.0000032  -0.0707076
    7   0.0535872  -0.0585777   0.0306261
    8  -0.0585777  -0.0140524   0.0530459
    9   0.0306744   0.0531232  -0.0707076
   10   0.0535872   0.0585777   0.0306261
   11   0.0585777  -0.0140524  -0.0530459
   12   0.0306689  -0.0531264  -0.0707076
   13  -0.1636173   0.0000000  -0.0000078
   14   0.0000000  -0.1636162   0.0000000
   15   0.0000000   0.0000127  -0.4579688
FINAL TENSOR RESULT:
Order 2, Length 15
    Atom      X          Y          Z
     1 Order 1, Length 15
    Atom      X          Y          Z
     1    5.872028846836990e-01   0.000000000000000e+00   4.587380173907441e-07
     2   -3.164690838608014e-01   0.000000000000000e+00  -8.523218158068169e-02
     3   -1.174469011005384e-01  -1.149052666915781e-01   4.261588120067306e-02
     4   -1.174469011047028e-01   1.149052666940546e-01   4.261610284966988e-02
     5   -3.584287098435962e-02   0.000000000000000e+00  -5.196546474246331e-08

Order 1, Length 15
    Atom      X          Y          Z
     1    0.000000000000000e+00   5.872024867378849e-01  -1.920717830624930e-07
     2    0.000000000000000e+00  -5.110647251374338e-02  -1.279680056072330e-07
     3   -1.149055693159918e-01  -2.501282845512504e-01   7.381354203503870e-02
     4    1.149055693147746e-01  -2.501282845491423e-01  -7.381341406703312e-02
     5    0.000000000000000e+00  -3.584061185845309e-02   2.016871117207408e-06

Order 1, Length 15
    Atom      X          Y          Z
     1    4.587380173907441e-07  -1.920717830624930e-07   3.917015525603294e-01
     2   -8.569126917006703e-02   0.000000000000000e+00  -7.105477040658244e-02
     3    4.284549103509876e-02   7.421063026428033e-02  -7.105406794107899e-02
     4    4.284557730015043e-02  -7.421109998617441e-02  -7.105530617067560e-02
     5    5.515104318596841e-07   0.000000000000000e+00  -1.785351396738878e-01


     2 Order 1, Length 15
    Atom      X          Y          Z
     1   -3.164690838608014e-01   0.000000000000000e+00  -8.569126917006703e-02
     2    3.323763602264836e-01   0.000000000000000e+00   8.961224460910919e-02
     3   -1.161169185903505e-02   2.257029404136001e-03  -4.144331373014535e-03
     4   -1.161169185592618e-02  -2.257029402341093e-03  -4.144559454786811e-03
     5    7.316240492235337e-03   0.000000000000000e+00   4.368135405980744e-03

Order 1, Length 15
    Atom      X          Y          Z
     1    0.000000000000000e+00  -5.110647251374338e-02   0.000000000000000e+00
     2    0.000000000000000e+00   4.633665003155497e-02   3.659333878141064e-07
     3   -2.566038920326197e-02   1.900244225077156e-03  -8.990527956755416e-03
     4    2.566038920505688e-02   1.900244221968286e-03   8.991186827173210e-03
     5    0.000000000000000e+00   9.691034993449530e-04  -1.517770354610204e-07

Order 1, Length 15
    Atom      X          Y          Z
     1   -8.523218158068169e-02  -1.279680056072330e-07  -7.105477040658244e-02
     2    8.961224460910919e-02   3.659333878141064e-07   8.453980782229829e-02
     3    9.858875929897409e-03  -9.062996382462447e-04   5.343520859687677e-03
     4    9.858191290491661e-03   9.061677276462790e-04   5.343520859687677e-03
     5   -2.409910817456896e-02   0.000000000000000e+00  -2.417240719872759e-02


     3 Order 1, Length 15
    Atom      X          Y          Z
     1   -1.174469011005384e-01  -1.149055693159918e-01   4.284549103509876e-02
     2   -1.161169185903505e-02  -2.566038920326197e-02   9.858875929897409e-03
     3    1.178465775787705e-01   1.238588277590978e-01  -4.480580539694470e-02
     4    8.656212264024389e-03   1.395870930190407e-02  -5.713859917477124e-03
     5    2.555920249284377e-03   2.748472712711885e-03  -2.184225047301046e-03

Order 1, Length 15
    Atom      X          Y          Z
     1   -1.149052666915781e-01  -2.501282845512504e-01   7.421063026428033e-02
     2    2.257029404136001e-03   1.900244225077156e-03  -9.062996382462447e-04
     3    1.238588277590978e-01   2.608664326792681e-01  -7.760666328832755e-02
     4   -1.395870930549390e-02  -1.836765989798229e-02   8.084360229109138e-03
     5    2.748715597947672e-03   5.729600998789126e-03  -3.783326038873933e-03

Order 1, Length 15
    Atom      X          Y          Z
     1    4.261588120067306e-02   7.381354203503870e-02  -7.105406794107899e-02
     2   -4.144331373014535e-03  -8.990527956755416e-03   5.343520859687677e-03
     3   -4.480580539694470e-02  -7.760666328832755e-02   8.453980782229829e-02
     4   -5.714316475110601e-03  -8.084887188926963e-03   5.343520859687677e-03
     5    1.204921032123420e-02   2.087044990136704e-02  -2.417412155263912e-02


     4 Order 1, Length 15
    Atom      X          Y          Z
     1   -1.174469011047028e-01   1.149055693147746e-01   4.284557730015043e-02
     2   -1.161169185592618e-02   2.566038920505688e-02   9.858191290491661e-03
     3    8.656212264024389e-03  -1.395870930549390e-02  -5.714316475110601e-03
     4    1.178465775818038e-01  -1.238588277608491e-01  -4.480643921216451e-02
     5    2.555920261594617e-03  -2.748472711303055e-03  -2.183922374091302e-03

Order 1, Length 15
    Atom      X          Y          Z
     1    1.149052666940546e-01  -2.501282845491423e-01  -7.421109998617441e-02
     2   -2.257029402341093e-03   1.900244221968286e-03   9.061677276462790e-04
     3    1.395870930190407e-02  -1.836765989798229e-02  -8.084887188926963e-03
     4   -1.238588277608491e-01   2.608664326762348e-01   7.760629735493978e-02
     5   -2.748715590012809e-03   5.729600996348966e-03   3.782498272507444e-03

Order 1, Length 15
    Atom      X          Y          Z
     1    4.261610284966988e-02  -7.381341406703312e-02  -7.105530617067560e-02
     2   -4.144559454786811e-03   8.991186827173210e-03   5.343520859687677e-03
     3   -5.713859917477124e-03   8.084360229109138e-03   5.343520859687677e-03
     4   -4.480643921216451e-02   7.760629735493978e-02   8.453980782229829e-02
     5    1.204939404203724e-02  -2.087034384125453e-02  -2.417069760598372e-02


     5 Order 1, Length 15
    Atom      X          Y          Z
     1   -3.584287098435962e-02   0.000000000000000e+00   5.515104318596841e-07
     2    7.316240492235337e-03   0.000000000000000e+00  -2.409910817456896e-02
     3    2.555920249284377e-03   2.748715597947672e-03   1.204921032123420e-02
     4    2.555920261594617e-03  -2.748715590012809e-03   1.204939404203724e-02
     5    2.341729486066789e-02   0.000000000000000e+00   0.000000000000000e+00

Order 1, Length 15
    Atom      X          Y          Z
     1    0.000000000000000e+00  -3.584061185845309e-02   0.000000000000000e+00
     2    0.000000000000000e+00   9.691034993449530e-04   0.000000000000000e+00
     3    2.748472712711885e-03   5.729600998789126e-03   2.087044990136704e-02
     4   -2.748472711303055e-03   5.729600996348966e-03  -2.087034384125453e-02
     5    0.000000000000000e+00   2.341303657605523e-02  -1.037305064222177e-06

Order 1, Length 15
    Atom      X          Y          Z
     1   -5.196546474246331e-08   2.016871117207408e-06  -1.785351396738878e-01
     2    4.368135405980744e-03  -1.517770354610204e-07  -2.417240719872759e-02
     3   -2.184225047301046e-03  -3.783326038873933e-03  -2.417412155263912e-02
     4   -2.183922374091302e-03   3.782498272507444e-03  -2.417069760598372e-02
     5    0.000000000000000e+00  -1.037305064222177e-06   2.510509203742864e-01




 # Finishing finite difference calculation for IDERIV #
 ######################################################
 ######################################################
 Requested basis set is 6-311G(d,p)
 There are 29 shells and 62 basis functions
 **********************************************************************
 **                                                                  **
 **                       VIBRATIONAL ANALYSIS                       **
 **                       --------------------                       **
 **                                                                  **
 **        VIBRATIONAL FREQUENCIES (CM**-1) AND NORMAL MODES         **
 **     FORCE CONSTANTS (mDYN/ANGSTROM) AND REDUCED MASSES (AMU)     **
 **                  INFRARED INTENSITIES (KM/MOL)                   **
 **                                                                  **
 **********************************************************************


 Mode:                 1                      2                      3
 Frequency:       787.22                1064.94                1064.94
 Force Cnst:      2.4436                 0.7896                 0.7896
 Red. Mass:       6.6923                 1.1816                 1.1816
 IR Active:          YES                    YES                    YES
 IR Intens:        0.000                  0.000                  0.000
 Raman Active:       YES                    YES                    YES
               X      Y      Z        X      Y      Z        X      Y      Z
 C         -0.000  0.000  0.584   -0.002 -0.119  0.000    0.119 -0.002  0.000
 H          0.047 -0.000  0.446    0.002  0.302 -0.013   -0.131  0.005  0.740
 H         -0.023 -0.041  0.445   -0.070  0.172  0.648   -0.261  0.077 -0.359
 H         -0.023  0.041  0.446    0.079  0.175 -0.635   -0.258 -0.071 -0.382
 Cl         0.000 -0.000 -0.239    0.000  0.022 -0.000   -0.022  0.000 -0.000
 TransDip   0.000  0.000  0.000    0.000  0.000  0.000    0.000  0.000  0.000

 Mode:                 4                      5                      6
 Frequency:      1442.24                1495.77                1495.77
 Force Cnst:      1.4001                 1.3829                 1.3829
 Red. Mass:       1.1424                 1.0491                 1.0491
 IR Active:          YES                    YES                    YES
 IR Intens:        0.000                  0.000                  0.000
 Raman Active:       YES                    YES                    YES
               X      Y      Z        X      Y      Z        X      Y      Z
 C          0.000  0.000 -0.110   -0.061 -0.000 -0.000    0.000 -0.061 -0.000
 H         -0.203 -0.000  0.537   -0.154  0.005  0.343    0.001  0.723 -0.003
 H          0.102  0.176  0.537    0.501 -0.379 -0.174   -0.384  0.068 -0.296
 H          0.102 -0.176  0.537    0.507  0.380 -0.169    0.376  0.062  0.299
 Cl         0.000 -0.000 -0.009   -0.004 -0.000  0.000    0.000 -0.004  0.000
 TransDip   0.000  0.000  0.000    0.000  0.000  0.000    0.000  0.000  0.000

 Mode:                 7                      8                      9
 Frequency:      3125.06                3232.97                3232.97
 Force Cnst:      5.9220                 6.8247                 6.8247
 Red. Mass:       1.0292                 1.1082                 1.1082
 IR Active:          YES                    YES                    YES
 IR Intens:        0.000                  0.000                  0.000
 Raman Active:       YES                    YES                    YES
               X      Y      Z        X      Y      Z        X      Y      Z
 C          0.000  0.000 -0.044   -0.096  0.000 -0.000   -0.000 -0.096 -0.000
 H          0.550  0.000  0.173    0.773  0.000  0.251    0.000 -0.019  0.000
 H         -0.275 -0.477  0.173    0.179  0.343 -0.126    0.343  0.575 -0.218
 H         -0.275  0.477  0.173    0.179 -0.343 -0.126   -0.343  0.575  0.218
 Cl         0.000 -0.000  0.000    0.000 -0.000  0.000    0.000  0.000  0.000
 TransDip   0.000  0.000  0.000    0.000  0.000  0.000    0.000  0.000  0.000

 STANDARD THERMODYNAMIC QUANTITIES AT   298.15 K  AND     1.00 ATM

   This Molecule has  0 Imaginary Frequencies
   Zero point vibrational energy:       24.220 kcal/mol

   Atom    1 Element C  Has Mass   12.00000
   Atom    2 Element H  Has Mass    1.00783
   Atom    3 Element H  Has Mass    1.00783
   Atom    4 Element H  Has Mass    1.00783
   Atom    5 Element Cl Has Mass   34.96885
   Molecular Mass:    49.992340 amu
   Principal axes and moments of inertia in atomic units:
                             1           2           3
    Eigenvalues --       11.42184   134.68519   134.68519
          X               0.00000    -0.32536     0.94559
          Y               0.00000     0.94559     0.32536
          Z               1.00000    -0.00000     0.00000
   Rotational Symmetry Number is   3
   The Molecule is a Symmetric Top
   Translational Enthalpy:        0.889 kcal/mol
   Rotational Enthalpy:           0.889 kcal/mol
   Vibrational Enthalpy:         24.317 kcal/mol
   gas constant (RT):             0.592 kcal/mol
   Translational Entropy:        37.651  cal/mol.K
   Rotational Entropy:           17.783  cal/mol.K
   Vibrational Entropy:           0.401  cal/mol.K

   Total Enthalpy:               26.687 kcal/mol
   Total Entropy:                55.835  cal/mol.K

 ======================================================================

 STANDARD THERMODYNAMIC QUANTITIES FOR ANHARMONIC VIBRATION -- TOSH

   Zero point vibrational energy: ************ kcal/mol

   Vibrational Enthalpy:       Infinity kcal/mol
   Vibrational Entropy:             NaN  cal/mol.K

   Total Enthalpy:             Infinity kcal/mol
   Total Entropy:                   NaN  cal/mol.K

 ======================================================================

 STANDARD THERMODYNAMIC QUANTITIES FOR ANHARMONIC VIBRATION -- VPT2

   Zero point vibrational energy: ************ kcal/mol

   Vibrational Enthalpy:       Infinity kcal/mol
   Vibrational Entropy:             NaN  cal/mol.K

   Total Enthalpy:             Infinity kcal/mol
   Total Entropy:                   NaN  cal/mol.K

 ======================================================================

Archival summary:
1\1\Deborahs-MacBook-Air.local\FREQ\MP2\6-311G**\l113\WedMay714:18:412014WedMay714:18:412014\0\\#,FREQ,MP2,6-311G**,\\0,1\Cl\C,1,1.77485\H,2,1.08772,1,108.99\H,2,1.08772,1,108.99,3,-120,0\H,2,1.08772,1,108.99,3,120,0\\HF=-499.130485\MP2=-499.494111\\@

 Total job time:  61.87s(wall), 62.16s(cpu) 
 Wed May  7 14:18:41 2014

        *************************************************************
        *                                                           *
        *  Thank you very much for using Q-Chem.  Have a nice day.  *
        *                                                           *
        *************************************************************


