/Users/Deb/Programs/trunk/build/qcprog.exe .fch3cl-_ts_fine.inp.30421.qcin.1 /tmp/qchem30421/

                  Welcome to Q-Chem
     A Quantum Leap Into The Future Of Chemistry

 Y. Shao, L. Fusti-Molnar, Y. Jung, J. Kussmann, C. Ochsenfeld, S. T. Brown, 
 A. T. B. Gilbert, L. V. Slipchenko, S. V. Levchenko, D. P. O'Neill, 
 R. A. DiStasio Jr., R. C. Lochan, T. Wang, G. J. O. Beran, N. A. Besley, 
 J. M. Herbert, C. Y. Lin, T. Van Voorhis, S. H. Chien, A. Sodt, R. P. Steele, 
 V. A. Rassolov, P. E. Maslen, P. P. Korambath, R. D. Adamson, B. Austin, 
 J. Baker, E. F. C. Byrd, H. Dachsel, R. J. Doerksen, A. Dreuw, B. D. Dunietz, 
 A. D. Dutoi, T. R. Furlani, S. R. Gwaltney, A. Heyden, S. Hirata, C.-P. Hsu, 
 G. Kedziora, R. Z. Khaliullin, P. Klunzinger, A. M. Lee, M. S. Lee, W. Liang, 
 I. Lotan, N. Nair, B. Peters, E. I. Proynov, P. A. Pieniazek, Y. M. Rhee, 
 J. Ritchie, E. Rosta, C. D. Sherrill, A. C. Simmonett, J. E. Subotnik, 
 H. L. Woodcock III, W. Zhang, A. T. Bell, A. K. Chakraborty, D. M. Chipman, 
 F. J. Keil, A. Warshel, W. J. Hehre, H. F. Schaefer III, J. Kong, 
 A. I. Krylov, P. M. W. Gill, M. Head-Gordon

 Additional authors for Version 3.1: 
 Z. Gan, Y. Zhao, N. E. Schultz, D. Truhlar, E. Epifanovsky, M. Oana

 Additional authors for Version 3.2: 
 R. Baer, B. R. Brooks, D. Casanova, J.-D. Chai, C.-L. Cheng, C. Cramer, 
 D. Crittenden, A. Ghysels, G. Hawkins, E. G. Hohenstein, C. Kelley, 
 W. Kurlancheek, D. Liotard, E. Livshits, P. Manohar, A. Marenich, 
 D. Neuhauser, R. Olson, M. A. Rohrdanz, K. S. Thanthiriwatte, A. J. W. Thom, 
 V. Vanovschi, C. F. Williams, Q. Wu, Z.-Q. You

 Additional authors for Version 4.0: 
 A. Aspuru-Guzik, Y. Bernard, C. Chang, J. Deng, A. Dreuw, M. Diedenhofen, 
 R. G. Edgar, D. Ghosh, W. A. Goddard III, M. Goldey, L. D. Jacobson, 
 M. Gordon, B. Kaduk, I. Kaliman, K. Khistyaev, R. King, A. Klamt, 
 D. Kosenkov, T. Kus, D. Lambrecht, A. Landau, A. W. Lange, K. Lawler, F. Liu, 
 J. Liu, R. Olivares-Amaya, S. P. Mao, J. Parkhill, N. Russ, M. Schmidt, 
 N. Shenvi, D. Small, Y. C. Su, E. Sundstrom, L. Vogt, O. Vydrov, M. Watson, 
 M. Wormit, X. Xu, S. Yeganeh, I. Y. Zhang, D. Zuev

 Additional authors for Version 4.1: 
 X. Feng, M. W. D. Hanson-Heine, P. Horn, H. Ji, A. Laurent, R. Peverati, 
 N. Mardirossian, N. Sergueev, S. Sharada, P. Zimmerman

 Q-Chem, Version 4.1, Q-Chem, Inc., Pittsburgh, PA (2013).

 Parts of Q-Chem use Armadillo 4.100.2 (Dirt Cruiser).
 http://arma.sourceforge.net/

 MAC (Intel) OSX Version 4.1.2

 Q-chem begins on Wed May  7 14:06:59 2014  

Deborahs-MacBook-Air.local
Host: 0

     Scratch files written to /tmp/qchem30421//
 Apr1114 |Users|Deb|Programs|trunk|libmdc|qstr_info.C -1
Finally everything over in PARseQInput

--------------------------------------------------------------
User input:
--------------------------------------------------------------
$molecule
-1 1
F 0.000000 0.000000 -2.537929
C 0.000000 0.000000 -0.488372
H 1.062087 0.000000 -0.614972
H -0.531044 0.919794 -0.614972
H -0.531044 -0.919794 -0.614972
Cl 0.000000 0.000000 1.624501
$end

$rem
JOBTYPE OPT
EXCHANGE HF
CORRELATION MP2
BASIS 6-311G**
$end

$opt
CONSTRAINT
stre 1 2 2.06
ENDCONSTRAINT
$end
--------------------------------------------------------------
 Atom   1: (  0.0000000436,  0.0000000000,  2.5379292286)
         ->(  0.0000000109, -0.0000000189,  2.5379292286)
 Atom   1: (  0.0000000109, -0.0000000189,  2.5379292286)
         ->(  0.0000000109,  0.0000000000,  2.5379292286)
 Atom   1: (  0.0000000109,  0.0000000000,  2.5379292286)
         ->(  0.0000000027,  0.0000000047,  2.5379292286)
 Atom   1: (  0.0000000027,  0.0000000047,  2.5379292286)
         ->( -0.0000000014,  0.0000000024,  2.5379292286)
 Atom   2: (  0.0000000315,  0.0000000000,  0.4883722286)
         ->(  0.0000000079, -0.0000000136,  0.4883722286)
 Atom   2: (  0.0000000079, -0.0000000136,  0.4883722286)
         ->(  0.0000000079,  0.0000000000,  0.4883722286)
 Atom   2: (  0.0000000079,  0.0000000000,  0.4883722286)
         ->(  0.0000000020,  0.0000000034,  0.4883722286)
 Atom   2: (  0.0000000020,  0.0000000034,  0.4883722286)
         ->( -0.0000000010,  0.0000000017,  0.4883722286)
 Atom   4: ( -0.5310439678, -0.9197940000,  0.6149722317)
         ->( -0.5310435161, -0.9197943509,  0.6149722223)
 Atom   5: ( -0.5310439678,  0.9197940000,  0.6149722317)
         ->( -0.5310435161,  0.9197943509,  0.6149722223)
 Atom   6: (  0.0000000189,  0.0000000000, -1.6245007714)
         ->(  0.0000000047, -0.0000000082, -1.6245007714)
 Atom   6: (  0.0000000047, -0.0000000082, -1.6245007714)
         ->(  0.0000000047,  0.0000000000, -1.6245007714)
 Atom   6: (  0.0000000047,  0.0000000000, -1.6245007714)
         ->(  0.0000000012,  0.0000000021, -1.6245007714)
 ----------------------------------------------------------------
             Standard Nuclear Orientation (Angstroms)
    I     Atom           X                Y                Z
 ----------------------------------------------------------------
    1      F      -0.0000000014     0.0000000024     2.5379292286
    2      C      -0.0000000010     0.0000000017     0.4883722286
    3      H       1.0620870322     0.0000000000     0.6149722223
    4      H      -0.5310435161    -0.9197943509     0.6149722223
    5      H      -0.5310435161     0.9197943509     0.6149722223
    6      Cl      0.0000000012     0.0000000021    -1.6245007714
 ----------------------------------------------------------------
 Molecular Point Group                 C3v   NOp =  6
 Largest Abelian Subgroup              Cs    NOp =  2
 Nuclear Repulsion Energy =    86.1006736723 hartrees
 There are       18 alpha and       18 beta electrons
 Requested basis set is 6-311G(d,p)
 There are 34 shells and 80 basis functions

Total QAlloc Memory Limit   2000 MB
Mega-Array Size        61 MB
MEM_STATIC part        62 MB
 A cutoff of  1.0D-11 yielded    558 shell pairs
 There are      3066 function pairs (      3293 Cartesian)
 Smallest overlap matrix eigenvalue = 1.07E-02

  Scale SEOQF with 1.000000e+00/1.000000e+00/1.000000e-01

 Standard Electronic Orientation quadrupole field applied
 Nucleus-field energy     =    -0.0000000095 hartrees
 Guess from superposition of atomic densities
 Warning:  Energy on first SCF cycle will be non-variational
 A restricted Hartree-Fock SCF calculation will be
 performed using Pulay DIIS extrapolation
 SCF converges when DIIS error is below 1.0E-08
 ---------------------------------------
  Cycle       Energy         DIIS Error
 ---------------------------------------
    1    -636.7756326087      2.21E+00
    2    -597.9266567937      4.31E-02
    3    -598.4805857336      1.25E-02
    4    -598.5535481454      6.24E-03
    5    -598.5719417605      7.13E-04
    6    -598.5734039318      2.68E-04
    7    -598.5735782090      8.63E-05
    8    -598.5735946887      2.49E-05
    9    -598.5735958661      3.26E-06
   10    -598.5735958826      5.97E-07
   11    -598.5735958834      1.69E-07
   12    -598.5735958834      5.35E-08
   13    -598.5735958834      2.40E-08
   14    -598.5735958834      1.28E-08
   15    -598.5735958834      2.31E-09 Convergence criterion met
 ---------------------------------------
 SCF time:  CPU 1.98 s  wall 1.99 s
 SCF   energy in the final basis set = -598.5735958834
 Total energy in the final basis set = -598.5735958834

 Components of the MP2 correlation energy:
        aaaa  correlation energy =        -0.0709759885 au
        abab  correlation energy =        -0.4516078436 au
        bbbb  correlation energy =        -0.0709759885 au
        non-Brillouin singles    =        -0.0000000000 au

 Total  MP2   correlation energy =        -0.5935598205 au
        MP2         total energy =      -599.1671557039 au

  Entering Z-vector solver.
OV_DIM:  Setting MaxSz  = 1116
OV_DIM:  Setting MaxSpc = 1116
   1         0           1      0.000557    0.000557
   2         0           1      0.000175    0.000175
   3         0           1      0.000061    0.000061
   4         0           1      0.000017    0.000017
   5         0           1      0.000004    0.000004
   6         1           0      0.000000    0.000000    Roots Converged
 Analysis of SCF Wavefunction

 --------------------------------------------------------------
             Orbital Energies (a.u.) and Symmetries
 --------------------------------------------------------------

 Alpha MOs, Restricted
 -- Occupied --                  
-104.60  -25.86  -11.14  -10.33   -7.79   -7.79   -7.79   -1.14
  1 A1    2 A1    3 A1    4 A1    5 A1    1 E     1 E     6 A1                 
 -0.876  -0.745  -0.452  -0.452  -0.308  -0.250  -0.250  -0.236
  7 A1    8 A1    2 E     2 E     9 A1    3 E     3 E     4 E                  
 -0.236  -0.203
  4 E    10 A1                                                                 
 -- Virtual --                   
  0.320   0.357   0.383   0.383   0.580   0.613   0.613   0.628
 11 A1   12 A1    5 E     5 E    13 A1    6 E     6 E     7 E                  
  0.628   0.843   0.915   0.950   0.950   1.151   1.192   1.305
  7 E    14 A1   15 A1    8 E     8 E    16 A1   17 A1    9 E                  
  1.305   1.374   1.374   1.470   1.470   1.472   1.616   1.660
  9 E    10 E    10 E    11 E    11 E    18 A1   19 A1   12 E                  
  1.660   1.824   1.874   1.874   1.932   2.168   2.237   2.237
 12 E     1 A2   13 E    13 E    20 A1   21 A1   14 E    14 E                  
  2.458   2.458   2.481   2.719   2.719   2.768   2.901   2.901
 15 E    15 E    22 A1   16 E    16 E    23 A1   17 E    17 E                  
  2.998   3.118   3.118   3.431   3.445   4.280   4.280   4.629
 24 A1   18 E    18 E    25 A1   26 A1   19 E    19 E    20 E                  
  4.629   4.633   4.633   4.722   7.084   7.084   7.203  10.402
 20 E    21 E    21 E    27 A1   22 E    22 E    28 A1   29 A1                 
 25.183  26.503  26.503  26.939  69.066 219.225
 30 A1   23 E    23 E    31 A1   32 A1   33 A1                                 

 Beta MOs, Restricted
 -- Occupied --                  
-104.60  -25.86  -11.14  -10.33   -7.79   -7.79   -7.79   -1.14
  1 A1    2 A1    3 A1    4 A1    5 A1    1 E     1 E     6 A1                 
 -0.876  -0.745  -0.452  -0.452  -0.308  -0.250  -0.250  -0.236
  7 A1    8 A1    2 E     2 E     9 A1    3 E     3 E     4 E                  
 -0.236  -0.203
  4 E    10 A1                                                                 
 -- Virtual --                   
  0.320   0.357   0.383   0.383   0.580   0.613   0.613   0.628
 11 A1   12 A1    5 E     5 E    13 A1    6 E     6 E     7 E                  
  0.628   0.843   0.915   0.950   0.950   1.151   1.192   1.305
  7 E    14 A1   15 A1    8 E     8 E    16 A1   17 A1    9 E                  
  1.305   1.374   1.374   1.470   1.470   1.472   1.616   1.660
  9 E    10 E    10 E    11 E    11 E    18 A1   19 A1   12 E                  
  1.660   1.824   1.874   1.874   1.932   2.168   2.237   2.237
 12 E     1 A2   13 E    13 E    20 A1   21 A1   14 E    14 E                  
  2.458   2.458   2.481   2.719   2.719   2.768   2.901   2.901
 15 E    15 E    22 A1   16 E    16 E    23 A1   17 E    17 E                  
  2.998   3.118   3.118   3.431   3.445   4.280   4.280   4.629
 24 A1   18 E    18 E    25 A1   26 A1   19 E    19 E    20 E                  
  4.629   4.633   4.633   4.722   7.084   7.084   7.203  10.402
 20 E    21 E    21 E    27 A1   22 E    22 E    28 A1   29 A1                 
 25.183  26.503  26.503  26.939  69.066 219.225
 30 A1   23 E    23 E    31 A1   32 A1   33 A1                                 
 --------------------------------------------------------------

          Ground-State Mulliken Net Atomic Charges

     Atom                 Charge (a.u.)
  ----------------------------------------
      1 F                    -0.724262
      2 C                    -0.125625
      3 H                     0.139079
      4 H                     0.139079
      5 H                     0.139079
      6 Cl                   -0.567350
  ----------------------------------------
  Sum of atomic charges =    -1.000000

 -----------------------------------------------------------------
                    Cartesian Multipole Moments
 -----------------------------------------------------------------
    Charge (ESU x 10^10)
                -4.8032
    Dipole Moment (Debye)
         X       0.0000      Y      -0.0000      Z      -2.9206
       Tot       2.9206
    Quadrupole Moments (Debye-Ang)
        XX     -27.4473     XY       0.0000     YY     -27.4473
        XZ       0.0000     YZ      -0.0000     ZZ     -58.7597
    Octopole Moments (Debye-Ang^2)
       XXX       0.8893    XXY      -0.0000    XYY      -0.8893
       YYY      -0.0000    XXZ       7.1267    XYZ       0.0000
       YYZ       7.1267    XZZ       0.0000    YZZ      -0.0000
       ZZZ     -27.2119
    Hexadecapole Moments (Debye-Ang^3)
      XXXX     -37.8829   XXXY       0.0000   XXYY     -12.6276
      XYYY       0.0000   YYYY     -37.8829   XXXZ       0.4884
      XXYZ       0.0000   XYYZ      -0.4884   YYYZ       0.0000
      XXZZ     -91.6199   XYZZ       0.0000   YYZZ     -91.6199
      XZZZ       0.0000   YZZZ      -0.0000   ZZZZ    -661.4478
 -----------------------------------------------------------------
 DrvMan is completing analytic gradient of the MP2 energy
 MP2 relaxed dipole moment
            1
    1   0.0000000
    2  -0.0000000
    3  -1.1490672
	Magnitude:	 1.149 au	 2.921 Debye
 MP2 energy read as -599.167156
 Full Analytical Gradient of MP2 Energy (in au.)
             1             2             3             4             5
    1   -0.00000000   -0.00000000   -0.00180362    0.00090181    0.00090181
    2    0.00000000    0.00000000   -0.00000000    0.00156198   -0.00156199
    3    0.01013535   -0.01000160   -0.00072550   -0.00072550   -0.00072550
             6
    1   -0.00000000
    2   -0.00000000
    3    0.00204274
 Gradient time:  CPU 0.01 s  wall 0.01 s
 Geometry Optimization Parameters
   NAtoms,    NIC,     NZ,  NCons,   NDum,   NFix, NCnnct, MaxDiis
        6      63       0       1       0       0       0       0


** CONSTRAINED OPTIMIZATION IN DELOCALIZED INTERNAL COORDINATES **
   Searching for a Minimum

   Optimization Cycle:   1

                       Coordinates (Angstroms)
     ATOM                X               Y               Z
      1  F         0.0000000000    0.0000000000    2.5379292286
      2  C         0.0000000000    0.0000000000    0.4883722286
      3  H         1.0620870322    0.0000000000    0.6149722223
      4  H        -0.5310435161   -0.9197943509    0.6149722223
      5  H        -0.5310435161    0.9197943509    0.6149722223
      6  Cl        0.0000000000    0.0000000000   -1.6245007714
   Point Group: c3v   Number of degrees of freedom:     4


   Energy is   -599.167155704

              Constraints and their Current Values
                                        Value     Constraint
   Distance(Angs):        1   2             2.049557     2.060000

 Attempting to Generate Delocalized Internal Coordinates
 GETINT wrote B to file, NVib is           12
 GETINT wrote B to file, NVib is            4
 calling HSSCONV
 HCONV 3*NATOMS:           18
 wrote HINT to file
  writing hessian 

   Using Lagrange Multiplier Algorithm


  5 Hessian modes will be used to form the next step
  Hessian Eigenvalues:
    -0.960797    0.069437    0.114964    0.309775    1.040803

 Minimum Search - Taking P-RFO Step
 Searching for Lamda that Maximizes Along the Constraint modes Only
 Value Taken    Lamda =   0.00047061
 Searching for Lamda that Minimizes Along All other modes
 Value Taken    Lamda =  -0.00010511
 Step Taken.  Stepsize is  0.028858

                             Maximum     Tolerance    Cnvgd?
         Gradient           0.019734      0.000300      NO
         Displacement       0.020167      0.001200      NO
         Energy change     *********      0.000001      NO


 New Cartesian Coordinates Obtained by Inverse Iteration

 Displacement from previous Coordinates is:  0.028382
 ----------------------------------------------------------------
             Standard Nuclear Orientation (Angstroms)
    I     Atom           X                Y                Z
 ----------------------------------------------------------------
    1      F       0.0000000000     0.0000000000     2.5459786979
    2      C       0.0000000000     0.0000000000     0.4859829064
    3      H       1.0632022620     0.0000000000     0.6170133140
    4      H      -0.5316011310    -0.9207601683     0.6170133140
    5      H      -0.5316011310     0.9207601683     0.6170133140
    6      Cl      0.0000000000     0.0000000000    -1.6362841937
 ----------------------------------------------------------------
 Molecular Point Group                 C3v   NOp =  6
 Largest Abelian Subgroup              Cs    NOp =  2
 Nuclear Repulsion Energy =    85.7363379616 hartrees
 There are       18 alpha and       18 beta electrons
 Applying Cartesian multipole field
    Component          Value
    ---------          -----
     (2,0,0)        1.00000E-10
     (0,2,0)        2.00000E-10
     (0,0,2)       -3.00000E-11
 Nucleus-field energy     =    -0.0000000096 hartrees
 Requested basis set is 6-311G(d,p)
 There are 34 shells and 80 basis functions
 A cutoff of  1.0D-11 yielded    558 shell pairs
 There are      3066 function pairs (      3293 Cartesian)
 Smallest overlap matrix eigenvalue = 1.08E-02
 Guess MOs from SCF MO coefficient file
Reading MOs from coefficient file
Reading MOs from coefficient file
 A restricted Hartree-Fock SCF calculation will be
 performed using Pulay DIIS extrapolation
 SCF converges when DIIS error is below 1.0E-08
Geometry optimization detected.  Setting ReadMinima to 0
Setting SaveMinima to 0
 ---------------------------------------
  Cycle       Energy         DIIS Error
 ---------------------------------------
    1    -598.5706571387      3.24E-04
    2    -598.5736581909      3.15E-05
    3    -598.5736594819      1.24E-05
    4    -598.5736596457      4.44E-06
    5    -598.5736596813      1.47E-06
    6    -598.5736596855      5.05E-07
    7    -598.5736596859      1.25E-07
    8    -598.5736596860      3.57E-08
    9    -598.5736596860      8.35E-09 Convergence criterion met
 ---------------------------------------
 SCF time:  CPU 1.74 s  wall 1.77 s
 SCF   energy in the final basis set = -598.5736596860
 Total energy in the final basis set = -598.5736596860

 Components of the MP2 correlation energy:
        aaaa  correlation energy =        -0.0709069666 au
        abab  correlation energy =        -0.4515106984 au
        bbbb  correlation energy =        -0.0709069666 au
        non-Brillouin singles    =        -0.0000000000 au

 Total  MP2   correlation energy =        -0.5933246316 au
        MP2         total energy =      -599.1669843175 au

  Entering Z-vector solver.
OV_DIM:  Setting MaxSz  = 1116
OV_DIM:  Setting MaxSpc = 1116
   1         0           1      0.000562    0.000562
   2         0           1      0.000176    0.000176
   3         0           1      0.000061    0.000061
   4         0           1      0.000017    0.000017
   5         0           1      0.000004    0.000004
   6         1           0      0.000000    0.000000    Roots Converged
 Analysis of SCF Wavefunction

 --------------------------------------------------------------
             Orbital Energies (a.u.) and Symmetries
 --------------------------------------------------------------

 Alpha MOs, Restricted
 -- Occupied --                  
-104.60  -25.86  -11.14  -10.33   -7.80   -7.79   -7.79   -1.14
  1 A1    2 A1    3 A1    4 A1    5 A1    1 E     1 E     6 A1                 
 -0.875  -0.746  -0.452  -0.452  -0.307  -0.250  -0.250  -0.236
  7 A1    8 A1    2 E     2 E     9 A1    3 E     3 E     4 E                  
 -0.236  -0.204
  4 E    10 A1                                                                 
 -- Virtual --                   
  0.319   0.354   0.383   0.383   0.579   0.612   0.612   0.628
 11 A1   12 A1    5 E     5 E    13 A1    6 E     6 E     7 E                  
  0.628   0.841   0.916   0.948   0.948   1.148   1.190   1.307
  7 E    14 A1   15 A1    8 E     8 E    16 A1   17 A1    9 E                  
  1.307   1.373   1.373   1.468   1.468   1.472   1.615   1.657
  9 E    10 E    10 E    11 E    11 E    18 A1   19 A1   12 E                  
  1.657   1.823   1.873   1.873   1.930   2.160   2.232   2.232
 12 E     1 A2   13 E    13 E    20 A1   21 A1   14 E    14 E                  
  2.459   2.459   2.478   2.718   2.718   2.766   2.899   2.899
 15 E    15 E    22 A1   16 E    16 E    23 A1   17 E    17 E                  
  2.992   3.112   3.112   3.427   3.440   4.275   4.275   4.629
 24 A1   18 E    18 E    25 A1   26 A1   19 E    19 E    20 E                  
  4.629   4.633   4.633   4.719   7.084   7.084   7.203  10.399
 20 E    21 E    21 E    27 A1   22 E    22 E    28 A1   29 A1                 
 25.177  26.501  26.501  26.928  69.065 219.222
 30 A1   23 E    23 E    31 A1   32 A1   33 A1                                 

 Beta MOs, Restricted
 -- Occupied --                  
-104.60  -25.86  -11.14  -10.33   -7.80   -7.79   -7.79   -1.14
  1 A1    2 A1    3 A1    4 A1    5 A1    1 E     1 E     6 A1                 
 -0.875  -0.746  -0.452  -0.452  -0.307  -0.250  -0.250  -0.236
  7 A1    8 A1    2 E     2 E     9 A1    3 E     3 E     4 E                  
 -0.236  -0.204
  4 E    10 A1                                                                 
 -- Virtual --                   
  0.319   0.354   0.383   0.383   0.579   0.612   0.612   0.628
 11 A1   12 A1    5 E     5 E    13 A1    6 E     6 E     7 E                  
  0.628   0.841   0.916   0.948   0.948   1.148   1.190   1.307
  7 E    14 A1   15 A1    8 E     8 E    16 A1   17 A1    9 E                  
  1.307   1.373   1.373   1.468   1.468   1.472   1.615   1.657
  9 E    10 E    10 E    11 E    11 E    18 A1   19 A1   12 E                  
  1.657   1.823   1.873   1.873   1.930   2.160   2.232   2.232
 12 E     1 A2   13 E    13 E    20 A1   21 A1   14 E    14 E                  
  2.459   2.459   2.478   2.718   2.718   2.766   2.899   2.899
 15 E    15 E    22 A1   16 E    16 E    23 A1   17 E    17 E                  
  2.992   3.112   3.112   3.427   3.440   4.275   4.275   4.629
 24 A1   18 E    18 E    25 A1   26 A1   19 E    19 E    20 E                  
  4.629   4.633   4.633   4.719   7.084   7.084   7.203  10.399
 20 E    21 E    21 E    27 A1   22 E    22 E    28 A1   29 A1                 
 25.177  26.501  26.501  26.928  69.065 219.222
 30 A1   23 E    23 E    31 A1   32 A1   33 A1                                 
 --------------------------------------------------------------

          Ground-State Mulliken Net Atomic Charges

     Atom                 Charge (a.u.)
  ----------------------------------------
      1 F                    -0.724757
      2 C                    -0.127497
      3 H                     0.140003
      4 H                     0.140003
      5 H                     0.140003
      6 Cl                   -0.567754
  ----------------------------------------
  Sum of atomic charges =    -1.000000

 -----------------------------------------------------------------
                    Cartesian Multipole Moments
 -----------------------------------------------------------------
    Charge (ESU x 10^10)
                -4.8032
    Dipole Moment (Debye)
         X       0.0000      Y       0.0000      Z      -2.9317
       Tot       2.9317
    Quadrupole Moments (Debye-Ang)
        XX     -27.4528     XY      -0.0000     YY     -27.4528
        XZ       0.0000     YZ       0.0000     ZZ     -59.0019
    Octopole Moments (Debye-Ang^2)
       XXX       0.8961    XXY       0.0000    XYY      -0.8961
       YYY       0.0000    XXZ       7.2695    XYZ      -0.0000
       YYZ       7.2695    XZZ       0.0000    YZZ      -0.0000
       ZZZ     -27.2241
    Hexadecapole Moments (Debye-Ang^3)
      XXXX     -37.9097   XXXY      -0.0000   XXYY     -12.6366
      XYYY      -0.0000   YYYY     -37.9097   XXXZ       0.4991
      XXYZ       0.0000   XYYZ      -0.4991   YYYZ       0.0000
      XXZZ     -92.4210   XYZZ       0.0000   YYZZ     -92.4210
      XZZZ       0.0000   YZZZ      -0.0000   ZZZZ    -668.4387
 -----------------------------------------------------------------
 DrvMan is completing analytic gradient of the MP2 energy
 MP2 relaxed dipole moment
            1
    1   0.0000000
    2   0.0000000
    3  -1.1534388
	Magnitude:	 1.153 au	 2.932 Debye
 MP2 energy read as -599.166984
 Full Analytical Gradient of MP2 Energy (in au.)
             1             2             3             4             5
    1    0.00000000    0.00000000   -0.00067799    0.00033899    0.00033899
    2   -0.00000000   -0.00000000    0.00000000    0.00058715   -0.00058715
    3    0.01085570   -0.01003329   -0.00019712   -0.00019712   -0.00019712
             6
    1   -0.00000000
    2   -0.00000000
    3   -0.00023105
 Gradient time:  CPU 0.01 s  wall 0.01 s
 Geometry Optimization Parameters
   NAtoms,    NIC,     NZ,  NCons,   NDum,   NFix, NCnnct, MaxDiis
        6      63       0       1       0       0       0       0

 Cartesian Hessian Update
 Hessian Updated using BFGS Update


** CONSTRAINED OPTIMIZATION IN DELOCALIZED INTERNAL COORDINATES **
   Searching for a Minimum

   Optimization Cycle:   2

                       Coordinates (Angstroms)
     ATOM                X               Y               Z
      1  F         0.0000000000    0.0000000000    2.5459786979
      2  C         0.0000000000    0.0000000000    0.4859829064
      3  H         1.0632022620    0.0000000000    0.6170133140
      4  H        -0.5316011310   -0.9207601683    0.6170133140
      5  H        -0.5316011310    0.9207601683    0.6170133140
      6  Cl        0.0000000000    0.0000000000   -1.6362841937
   Point Group: c3v   Number of degrees of freedom:     4


   Energy is   -599.166984318

              Constraints and their Current Values
                                        Value     Constraint
   Distance(Angs):        1   2             2.059996     2.060000
 GETINT wrote B to file, NVib is            4
 Hessian Updated using BFGS Update

   Using Lagrange Multiplier Algorithm


  5 Hessian modes will be used to form the next step
  Hessian Eigenvalues:
    -0.969713    0.068972    0.140959    0.268343    1.032219

 Minimum Search - Taking P-RFO Step
 Searching for Lamda that Maximizes Along the Constraint modes Only
 Value Taken    Lamda =   0.00000034
 Searching for Lamda that Minimizes Along All other modes
 Value Taken    Lamda =  -0.00000508
 Step Taken.  Stepsize is  0.004536

                             Maximum     Tolerance    Cnvgd?
         Gradient           0.001083      0.000300      NO
         Displacement       0.004075      0.001200      NO
         Energy change      0.000171      0.000001      NO


 New Cartesian Coordinates Obtained by Inverse Iteration

 Displacement from previous Coordinates is:  0.003494
 ----------------------------------------------------------------
             Standard Nuclear Orientation (Angstroms)
    I     Atom           X                Y                Z
 ----------------------------------------------------------------
    1      F       0.0000000000     0.0000000000     2.5455724308
    2      C       0.0000000000     0.0000000000     0.4855724320
    3      H       1.0641807524     0.0000000000     0.6171557951
    4      H      -0.5320903762    -0.9216075658     0.6171557951
    5      H      -0.5320903762     0.9216075658     0.6171557951
    6      Cl      0.0000000000     0.0000000000    -1.6358948956
 ----------------------------------------------------------------
 Molecular Point Group                 C3v   NOp =  6
 Largest Abelian Subgroup              Cs    NOp =  2
 Nuclear Repulsion Energy =    85.7393515483 hartrees
 There are       18 alpha and       18 beta electrons
 Applying Cartesian multipole field
    Component          Value
    ---------          -----
     (2,0,0)        1.00000E-10
     (0,2,0)        2.00000E-10
     (0,0,2)       -3.00000E-11
 Nucleus-field energy     =    -0.0000000096 hartrees
 Requested basis set is 6-311G(d,p)
 There are 34 shells and 80 basis functions
 A cutoff of  1.0D-11 yielded    558 shell pairs
 There are      3066 function pairs (      3293 Cartesian)
 Smallest overlap matrix eigenvalue = 1.09E-02
 Guess MOs from SCF MO coefficient file
Reading MOs from coefficient file
Reading MOs from coefficient file
 A restricted Hartree-Fock SCF calculation will be
 performed using Pulay DIIS extrapolation
 SCF converges when DIIS error is below 1.0E-08
Geometry optimization detected.  Setting ReadMinima to 0
Setting SaveMinima to 0
 ---------------------------------------
  Cycle       Energy         DIIS Error
 ---------------------------------------
    1    -598.5725295925      7.20E-05
    2    -598.5735924232      1.62E-05
    3    -598.5735926587      6.80E-06
    4    -598.5735926964      1.04E-06
    5    -598.5735926983      4.63E-07
    6    -598.5735926986      1.78E-07
    7    -598.5735926987      6.13E-08
    8    -598.5735926987      1.26E-08
    9    -598.5735926987      2.59E-09 Convergence criterion met
 ---------------------------------------
 SCF time:  CPU 1.42 s  wall 1.44 s
 SCF   energy in the final basis set = -598.5735926987
 Total energy in the final basis set = -598.5735926987

 Components of the MP2 correlation energy:
        aaaa  correlation energy =        -0.0709144990 au
        abab  correlation energy =        -0.4515649371 au
        bbbb  correlation energy =        -0.0709144990 au
        non-Brillouin singles    =        -0.0000000000 au

 Total  MP2   correlation energy =        -0.5933939350 au
        MP2         total energy =      -599.1669866337 au

  Entering Z-vector solver.
OV_DIM:  Setting MaxSz  = 1116
OV_DIM:  Setting MaxSpc = 1116
   1         0           1      0.000562    0.000562
   2         0           1      0.000176    0.000176
   3         0           1      0.000061    0.000061
   4         0           1      0.000017    0.000017
   5         0           1      0.000004    0.000004
   6         1           0      0.000000    0.000000    Roots Converged
 Analysis of SCF Wavefunction

 --------------------------------------------------------------
             Orbital Energies (a.u.) and Symmetries
 --------------------------------------------------------------

 Alpha MOs, Restricted
 -- Occupied --                  
-104.60  -25.86  -11.14  -10.33   -7.80   -7.79   -7.79   -1.14
  1 A1    2 A1    3 A1    4 A1    5 A1    1 E     1 E     6 A1                 
 -0.875  -0.746  -0.451  -0.451  -0.307  -0.250  -0.250  -0.236
  7 A1    8 A1    2 E     2 E     9 A1    3 E     3 E     4 E                  
 -0.236  -0.203
  4 E    10 A1                                                                 
 -- Virtual --                   
  0.319   0.354   0.383   0.383   0.579   0.612   0.612   0.628
 11 A1   12 A1    5 E     5 E    13 A1    6 E     6 E     7 E                  
  0.628   0.840   0.916   0.948   0.948   1.148   1.190   1.307
  7 E    14 A1   15 A1    8 E     8 E    16 A1   17 A1    9 E                  
  1.307   1.373   1.373   1.468   1.468   1.472   1.615   1.657
  9 E    10 E    10 E    11 E    11 E    18 A1   19 A1   12 E                  
  1.657   1.822   1.872   1.872   1.930   2.160   2.232   2.232
 12 E     1 A2   13 E    13 E    20 A1   21 A1   14 E    14 E                  
  2.459   2.459   2.478   2.718   2.718   2.765   2.898   2.898
 15 E    15 E    22 A1   16 E    16 E    23 A1   17 E    17 E                  
  2.990   3.110   3.110   3.427   3.440   4.273   4.273   4.629
 24 A1   18 E    18 E    25 A1   26 A1   19 E    19 E    20 E                  
  4.629   4.633   4.633   4.719   7.084   7.084   7.203  10.399
 20 E    21 E    21 E    27 A1   22 E    22 E    28 A1   29 A1                 
 25.174  26.501  26.501  26.928  69.065 219.222
 30 A1   23 E    23 E    31 A1   32 A1   33 A1                                 

 Beta MOs, Restricted
 -- Occupied --                  
-104.60  -25.86  -11.14  -10.33   -7.80   -7.79   -7.79   -1.14
  1 A1    2 A1    3 A1    4 A1    5 A1    1 E     1 E     6 A1                 
 -0.875  -0.746  -0.451  -0.451  -0.307  -0.250  -0.250  -0.236
  7 A1    8 A1    2 E     2 E     9 A1    3 E     3 E     4 E                  
 -0.236  -0.203
  4 E    10 A1                                                                 
 -- Virtual --                   
  0.319   0.354   0.383   0.383   0.579   0.612   0.612   0.628
 11 A1   12 A1    5 E     5 E    13 A1    6 E     6 E     7 E                  
  0.628   0.840   0.916   0.948   0.948   1.148   1.190   1.307
  7 E    14 A1   15 A1    8 E     8 E    16 A1   17 A1    9 E                  
  1.307   1.373   1.373   1.468   1.468   1.472   1.615   1.657
  9 E    10 E    10 E    11 E    11 E    18 A1   19 A1   12 E                  
  1.657   1.822   1.872   1.872   1.930   2.160   2.232   2.232
 12 E     1 A2   13 E    13 E    20 A1   21 A1   14 E    14 E                  
  2.459   2.459   2.478   2.718   2.718   2.765   2.898   2.898
 15 E    15 E    22 A1   16 E    16 E    23 A1   17 E    17 E                  
  2.990   3.110   3.110   3.427   3.440   4.273   4.273   4.629
 24 A1   18 E    18 E    25 A1   26 A1   19 E    19 E    20 E                  
  4.629   4.633   4.633   4.719   7.084   7.084   7.203  10.399
 20 E    21 E    21 E    27 A1   22 E    22 E    28 A1   29 A1                 
 25.174  26.501  26.501  26.928  69.065 219.222
 30 A1   23 E    23 E    31 A1   32 A1   33 A1                                 
 --------------------------------------------------------------

          Ground-State Mulliken Net Atomic Charges

     Atom                 Charge (a.u.)
  ----------------------------------------
      1 F                    -0.724986
      2 C                    -0.127897
      3 H                     0.140011
      4 H                     0.140011
      5 H                     0.140011
      6 Cl                   -0.567151
  ----------------------------------------
  Sum of atomic charges =    -1.000000

 -----------------------------------------------------------------
                    Cartesian Multipole Moments
 -----------------------------------------------------------------
    Charge (ESU x 10^10)
                -4.8032
    Dipole Moment (Debye)
         X       0.0000      Y       0.0000      Z      -2.9384
       Tot       2.9384
    Quadrupole Moments (Debye-Ang)
        XX     -27.4532     XY      -0.0000     YY     -27.4532
        XZ       0.0000     YZ       0.0000     ZZ     -58.9955
    Octopole Moments (Debye-Ang^2)
       XXX       0.8985    XXY       0.0000    XYY      -0.8985
       YYY       0.0000    XXZ       7.2633    XYZ       0.0000
       YYZ       7.2633    XZZ       0.0000    YZZ      -0.0000
       ZZZ     -27.2615
    Hexadecapole Moments (Debye-Ang^3)
      XXXX     -37.9278   XXXY      -0.0000   XXYY     -12.6426
      XYYY      -0.0000   YYYY     -37.9278   XXXZ       0.5008
      XXYZ       0.0000   XYYZ      -0.5008   YYYZ       0.0000
      XXZZ     -92.3900   XYZZ      -0.0000   YYZZ     -92.3900
      XZZZ       0.0000   YZZZ       0.0000   ZZZZ    -668.1685
 -----------------------------------------------------------------
 DrvMan is completing analytic gradient of the MP2 energy
 MP2 relaxed dipole moment
            1
    1   0.0000000
    2   0.0000000
    3  -1.1560703
	Magnitude:	 1.156 au	 2.938 Debye
 MP2 energy read as -599.166987
 Full Analytical Gradient of MP2 Energy (in au.)
             1             2             3             4             5
    1    0.00000000    0.00000000    0.00009808   -0.00004904   -0.00004904
    2    0.00000000    0.00000000   -0.00000000   -0.00008494    0.00008494
    3    0.01075318   -0.01021272   -0.00011258   -0.00011258   -0.00011258
             6
    1   -0.00000000
    2    0.00000000
    3   -0.00020273
 Gradient time:  CPU 0.01 s  wall 0.01 s
 Geometry Optimization Parameters
   NAtoms,    NIC,     NZ,  NCons,   NDum,   NFix, NCnnct, MaxDiis
        6      63       0       1       0       0       0       0

 Cartesian Hessian Update
 Hessian Updated using BFGS Update


** CONSTRAINED OPTIMIZATION IN DELOCALIZED INTERNAL COORDINATES **
   Searching for a Minimum

   Optimization Cycle:   3

                       Coordinates (Angstroms)
     ATOM                X               Y               Z
      1  F         0.0000000000    0.0000000000    2.5455724308
      2  C         0.0000000000    0.0000000000    0.4855724320
      3  H         1.0641807524    0.0000000000    0.6171557951
      4  H        -0.5320903762   -0.9216075658    0.6171557951
      5  H        -0.5320903762    0.9216075658    0.6171557951
      6  Cl        0.0000000000    0.0000000000   -1.6358948956
   Point Group: c3v   Number of degrees of freedom:     4


   Energy is   -599.166986634

              Constraints and their Current Values
                                        Value     Constraint
   Distance(Angs):        1   2             2.060000     2.060000
 GETINT wrote B to file, NVib is            4
 Hessian Updated using BFGS Update

  3 Hessian modes will be used to form the next step
  Hessian Eigenvalues:
     0.061164    0.124651    0.334305

 Minimum Search - Taking Simple RFO Step
 Searching for Lamda that Minimizes Along All modes
 Value Taken    Lamda =   0.00000000
 Step Taken.  Stepsize is  0.002709

                             Maximum     Tolerance    Cnvgd?
         Gradient           0.000187      0.000300     YES
         Displacement       0.002426      0.001200      NO
         Energy change     -0.000002      0.000001      NO


 New Cartesian Coordinates Obtained by Inverse Iteration

 Displacement from previous Coordinates is:  0.001401
 ----------------------------------------------------------------
             Standard Nuclear Orientation (Angstroms)
    I     Atom           X                Y                Z
 ----------------------------------------------------------------
    1      F       0.0000000000     0.0000000000     2.5452324379
    2      C       0.0000000000     0.0000000000     0.4852324392
    3      H       1.0641543208     0.0000000000     0.6171965692
    4      H      -0.5320771604    -0.9215846754     0.6171965692
    5      H      -0.5320771604     0.9215846754     0.6171965692
    6      Cl      0.0000000000     0.0000000000    -1.6353372323
 ----------------------------------------------------------------
 Molecular Point Group                 C3v   NOp =  6
 Largest Abelian Subgroup              Cs    NOp =  2
 Nuclear Repulsion Energy =    85.7572309612 hartrees
 There are       18 alpha and       18 beta electrons
 Applying Cartesian multipole field
    Component          Value
    ---------          -----
     (2,0,0)        1.00000E-10
     (0,2,0)        2.00000E-10
     (0,0,2)       -3.00000E-11
 Nucleus-field energy     =    -0.0000000096 hartrees
 Requested basis set is 6-311G(d,p)
 There are 34 shells and 80 basis functions
 A cutoff of  1.0D-11 yielded    558 shell pairs
 There are      3066 function pairs (      3293 Cartesian)
 Smallest overlap matrix eigenvalue = 1.09E-02
 Guess MOs from SCF MO coefficient file
Reading MOs from coefficient file
Reading MOs from coefficient file
 A restricted Hartree-Fock SCF calculation will be
 performed using Pulay DIIS extrapolation
 SCF converges when DIIS error is below 1.0E-08
Geometry optimization detected.  Setting ReadMinima to 0
Setting SaveMinima to 0
 ---------------------------------------
  Cycle       Energy         DIIS Error
 ---------------------------------------
    1    -598.5736249399      2.66E-05
    2    -598.5735714772      5.01E-06
    3    -598.5735715048      1.93E-06
    4    -598.5735715100      8.41E-07
    5    -598.5735715115      2.59E-07
    6    -598.5735715116      9.58E-08
    7    -598.5735715116      2.23E-08
    8    -598.5735715116      3.22E-09 Convergence criterion met
 ---------------------------------------
 SCF time:  CPU 1.34 s  wall 1.34 s
 SCF   energy in the final basis set = -598.5735715116
 Total energy in the final basis set = -598.5735715116

 Components of the MP2 correlation energy:
        aaaa  correlation energy =        -0.0709194128 au
        abab  correlation energy =        -0.4515768724 au
        bbbb  correlation energy =        -0.0709194128 au
        non-Brillouin singles    =        -0.0000000000 au

 Total  MP2   correlation energy =        -0.5934156980 au
        MP2         total energy =      -599.1669872096 au

  Entering Z-vector solver.
OV_DIM:  Setting MaxSz  = 1116
OV_DIM:  Setting MaxSpc = 1116
   1         0           1      0.000562    0.000562
   2         0           1      0.000176    0.000176
   3         0           1      0.000061    0.000061
   4         0           1      0.000017    0.000017
   5         0           1      0.000004    0.000004
   6         1           0      0.000000    0.000000    Roots Converged
 Analysis of SCF Wavefunction

 --------------------------------------------------------------
             Orbital Energies (a.u.) and Symmetries
 --------------------------------------------------------------

 Alpha MOs, Restricted
 -- Occupied --                  
-104.60  -25.86  -11.14  -10.33   -7.80   -7.79   -7.79   -1.14
  1 A1    2 A1    3 A1    4 A1    5 A1    1 E     1 E     6 A1                 
 -0.875  -0.746  -0.451  -0.451  -0.307  -0.250  -0.250  -0.236
  7 A1    8 A1    2 E     2 E     9 A1    3 E     3 E     4 E                  
 -0.236  -0.203
  4 E    10 A1                                                                 
 -- Virtual --                   
  0.319   0.354   0.383   0.383   0.579   0.612   0.612   0.628
 11 A1   12 A1    5 E     5 E    13 A1    6 E     6 E     7 E                  
  0.628   0.840   0.916   0.948   0.948   1.149   1.190   1.306
  7 E    14 A1   15 A1    8 E     8 E    16 A1   17 A1    9 E                  
  1.306   1.373   1.373   1.468   1.468   1.472   1.615   1.657
  9 E    10 E    10 E    11 E    11 E    18 A1   19 A1   12 E                  
  1.657   1.822   1.873   1.873   1.931   2.160   2.232   2.232
 12 E     1 A2   13 E    13 E    20 A1   21 A1   14 E    14 E                  
  2.459   2.459   2.478   2.718   2.718   2.766   2.898   2.898
 15 E    15 E    22 A1   16 E    16 E    23 A1   17 E    17 E                  
  2.990   3.110   3.110   3.427   3.440   4.273   4.273   4.629
 24 A1   18 E    18 E    25 A1   26 A1   19 E    19 E    20 E                  
  4.629   4.633   4.633   4.719   7.084   7.084   7.203  10.399
 20 E    21 E    21 E    27 A1   22 E    22 E    28 A1   29 A1                 
 25.174  26.501  26.501  26.929  69.066 219.222
 30 A1   23 E    23 E    31 A1   32 A1   33 A1                                 

 Beta MOs, Restricted
 -- Occupied --                  
-104.60  -25.86  -11.14  -10.33   -7.80   -7.79   -7.79   -1.14
  1 A1    2 A1    3 A1    4 A1    5 A1    1 E     1 E     6 A1                 
 -0.875  -0.746  -0.451  -0.451  -0.307  -0.250  -0.250  -0.236
  7 A1    8 A1    2 E     2 E     9 A1    3 E     3 E     4 E                  
 -0.236  -0.203
  4 E    10 A1                                                                 
 -- Virtual --                   
  0.319   0.354   0.383   0.383   0.579   0.612   0.612   0.628
 11 A1   12 A1    5 E     5 E    13 A1    6 E     6 E     7 E                  
  0.628   0.840   0.916   0.948   0.948   1.149   1.190   1.306
  7 E    14 A1   15 A1    8 E     8 E    16 A1   17 A1    9 E                  
  1.306   1.373   1.373   1.468   1.468   1.472   1.615   1.657
  9 E    10 E    10 E    11 E    11 E    18 A1   19 A1   12 E                  
  1.657   1.822   1.873   1.873   1.931   2.160   2.232   2.232
 12 E     1 A2   13 E    13 E    20 A1   21 A1   14 E    14 E                  
  2.459   2.459   2.478   2.718   2.718   2.766   2.898   2.898
 15 E    15 E    22 A1   16 E    16 E    23 A1   17 E    17 E                  
  2.990   3.110   3.110   3.427   3.440   4.273   4.273   4.629
 24 A1   18 E    18 E    25 A1   26 A1   19 E    19 E    20 E                  
  4.629   4.633   4.633   4.719   7.084   7.084   7.203  10.399
 20 E    21 E    21 E    27 A1   22 E    22 E    28 A1   29 A1                 
 25.174  26.501  26.501  26.929  69.066 219.222
 30 A1   23 E    23 E    31 A1   32 A1   33 A1                                 
 --------------------------------------------------------------

          Ground-State Mulliken Net Atomic Charges

     Atom                 Charge (a.u.)
  ----------------------------------------
      1 F                    -0.725231
      2 C                    -0.128068
      3 H                     0.139973
      4 H                     0.139973
      5 H                     0.139973
      6 Cl                   -0.566620
  ----------------------------------------
  Sum of atomic charges =    -1.000000

 -----------------------------------------------------------------
                    Cartesian Multipole Moments
 -----------------------------------------------------------------
    Charge (ESU x 10^10)
                -4.8032
    Dipole Moment (Debye)
         X       0.0000      Y       0.0000      Z      -2.9463
       Tot       2.9463
    Quadrupole Moments (Debye-Ang)
        XX     -27.4525     XY      -0.0000     YY     -27.4525
        XZ       0.0000     YZ       0.0000     ZZ     -58.9863
    Octopole Moments (Debye-Ang^2)
       XXX       0.8981    XXY       0.0000    XYY      -0.8981
       YYY       0.0000    XXZ       7.2540    XYZ      -0.0000
       YYZ       7.2540    XZZ       0.0000    YZZ       0.0000
       ZZZ     -27.3147
    Hexadecapole Moments (Debye-Ang^3)
      XXXX     -37.9262   XXXY      -0.0000   XXYY     -12.6421
      XYYY      -0.0000   YYYY     -37.9262   XXXZ       0.5005
      XXYZ       0.0000   XYYZ      -0.5005   YYYZ       0.0000
      XXZZ     -92.3478   XYZZ       0.0000   YYZZ     -92.3478
      XZZZ       0.0000   YZZZ       0.0000   ZZZZ    -667.8588
 -----------------------------------------------------------------
 DrvMan is completing analytic gradient of the MP2 energy
 MP2 relaxed dipole moment
            1
    1   0.0000000
    2   0.0000000
    3  -1.1591642
	Magnitude:	 1.159 au	 2.946 Debye
 MP2 energy read as -599.166987
 Full Analytical Gradient of MP2 Energy (in au.)
             1             2             3             4             5
    1    0.00000000    0.00000000    0.00011253   -0.00005626   -0.00005626
    2    0.00000000   -0.00000000   -0.00000000   -0.00009745    0.00009745
    3    0.01065355   -0.01012906   -0.00012090   -0.00012090   -0.00012090
             6
    1   -0.00000000
    2   -0.00000000
    3   -0.00016178
 Gradient time:  CPU 0.01 s  wall 0.01 s
 Geometry Optimization Parameters
   NAtoms,    NIC,     NZ,  NCons,   NDum,   NFix, NCnnct, MaxDiis
        6      63       0       1       0       0       0       0

 Cartesian Hessian Update
 Hessian Updated using BFGS Update


** CONSTRAINED OPTIMIZATION IN DELOCALIZED INTERNAL COORDINATES **
   Searching for a Minimum

   Optimization Cycle:   4

                       Coordinates (Angstroms)
     ATOM                X               Y               Z
      1  F         0.0000000000    0.0000000000    2.5452324379
      2  C         0.0000000000    0.0000000000    0.4852324392
      3  H         1.0641543208    0.0000000000    0.6171965692
      4  H        -0.5320771604   -0.9215846754    0.6171965692
      5  H        -0.5320771604    0.9215846754    0.6171965692
      6  Cl        0.0000000000    0.0000000000   -1.6353372323
   Point Group: c3v   Number of degrees of freedom:     4


   Energy is   -599.166987210

              Constraints and their Current Values
                                        Value     Constraint
   Distance(Angs):        1   2             2.060000     2.060000
 GETINT wrote B to file, NVib is            4
 Hessian Updated using BFGS Update

  3 Hessian modes will be used to form the next step
  Hessian Eigenvalues:
     0.005044    0.131671    0.314174

 Minimum Search - Taking Simple RFO Step
 Searching for Lamda that Minimizes Along All modes
 Value Taken    Lamda =  -0.00000802
 Step Taken.  Stepsize is  0.039622

                             Maximum     Tolerance    Cnvgd?
         Gradient           0.000168      0.000300     YES
         Displacement       0.037032      0.001200      NO
         Energy change     -0.000001      0.000001     YES


                       Distance Matrix (Angstroms)
             F (  1)   C (  2)   H (  3)   H (  4)   H (  5)
   C (  2)  2.060000
   H (  3)  2.202214  1.072305
   H (  4)  2.202214  1.072305  1.843169
   H (  5)  2.202214  1.072305  1.843169  1.843169
   Cl(  6)  4.180570  2.120570  2.491251  2.491251  2.491251

 Final energy is   -599.16698720959755     


 ******************************
 **  OPTIMIZATION CONVERGED  **
 ******************************

Z-matrix Print:
$molecule
-1 1
Cl
C  1 2.120570
H  2 1.072305 1 97.069072
H  2 1.072305 1 97.069072 3 -120.000000 0
H  2 1.072305 1 97.069072 3 120.000000 0
F  2 2.060000 1 180.000000 3 0.000000 0
$end

 Analysis of SCF Wavefunction

 --------------------------------------------------------------
             Orbital Energies (a.u.) and Symmetries
 --------------------------------------------------------------

 Alpha MOs, Restricted
 -- Occupied --                  
-104.60  -25.86  -11.14  -10.33   -7.80   -7.79   -7.79   -1.14
  1 A1    2 A1    3 A1    4 A1    5 A1    1 E     1 E     6 A1                 
 -0.875  -0.746  -0.451  -0.451  -0.307  -0.250  -0.250  -0.236
  7 A1    8 A1    2 E     2 E     9 A1    3 E     3 E     4 E                  
 -0.236  -0.203
  4 E    10 A1                                                                 
 -- Virtual --                   
  0.319   0.354   0.383   0.383   0.579   0.612   0.612   0.628
 11 A1   12 A1    5 E     5 E    13 A1    6 E     6 E     7 E                  
  0.628   0.840   0.916   0.948   0.948   1.149   1.190   1.306
  7 E    14 A1   15 A1    8 E     8 E    16 A1   17 A1    9 E                  
  1.306   1.373   1.373   1.468   1.468   1.472   1.615   1.657
  9 E    10 E    10 E    11 E    11 E    18 A1   19 A1   12 E                  
  1.657   1.822   1.873   1.873   1.931   2.160   2.232   2.232
 12 E     1 A2   13 E    13 E    20 A1   21 A1   14 E    14 E                  
  2.459   2.459   2.478   2.718   2.718   2.766   2.898   2.898
 15 E    15 E    22 A1   16 E    16 E    23 A1   17 E    17 E                  
  2.990   3.110   3.110   3.427   3.440   4.273   4.273   4.629
 24 A1   18 E    18 E    25 A1   26 A1   19 E    19 E    20 E                  
  4.629   4.633   4.633   4.719   7.084   7.084   7.203  10.399
 20 E    21 E    21 E    27 A1   22 E    22 E    28 A1   29 A1                 
 25.174  26.501  26.501  26.929  69.066 219.222
 30 A1   23 E    23 E    31 A1   32 A1   33 A1                                 

 Beta MOs, Restricted
 -- Occupied --                  
-104.60  -25.86  -11.14  -10.33   -7.80   -7.79   -7.79   -1.14
  1 A1    2 A1    3 A1    4 A1    5 A1    1 E     1 E     6 A1                 
 -0.875  -0.746  -0.451  -0.451  -0.307  -0.250  -0.250  -0.236
  7 A1    8 A1    2 E     2 E     9 A1    3 E     3 E     4 E                  
 -0.236  -0.203
  4 E    10 A1                                                                 
 -- Virtual --                   
  0.319   0.354   0.383   0.383   0.579   0.612   0.612   0.628
 11 A1   12 A1    5 E     5 E    13 A1    6 E     6 E     7 E                  
  0.628   0.840   0.916   0.948   0.948   1.149   1.190   1.306
  7 E    14 A1   15 A1    8 E     8 E    16 A1   17 A1    9 E                  
  1.306   1.373   1.373   1.468   1.468   1.472   1.615   1.657
  9 E    10 E    10 E    11 E    11 E    18 A1   19 A1   12 E                  
  1.657   1.822   1.873   1.873   1.931   2.160   2.232   2.232
 12 E     1 A2   13 E    13 E    20 A1   21 A1   14 E    14 E                  
  2.459   2.459   2.478   2.718   2.718   2.766   2.898   2.898
 15 E    15 E    22 A1   16 E    16 E    23 A1   17 E    17 E                  
  2.990   3.110   3.110   3.427   3.440   4.273   4.273   4.629
 24 A1   18 E    18 E    25 A1   26 A1   19 E    19 E    20 E                  
  4.629   4.633   4.633   4.719   7.084   7.084   7.203  10.399
 20 E    21 E    21 E    27 A1   22 E    22 E    28 A1   29 A1                 
 25.174  26.501  26.501  26.929  69.066 219.222
 30 A1   23 E    23 E    31 A1   32 A1   33 A1                                 
 --------------------------------------------------------------

          Ground-State Mulliken Net Atomic Charges

     Atom                 Charge (a.u.)
  ----------------------------------------
      1 F                    -0.725231
      2 C                    -0.128068
      3 H                     0.139973
      4 H                     0.139973
      5 H                     0.139973
      6 Cl                   -0.566620
  ----------------------------------------
  Sum of atomic charges =    -1.000000

 -----------------------------------------------------------------
                    Cartesian Multipole Moments
 -----------------------------------------------------------------
    Charge (ESU x 10^10)
                -4.8032
    Dipole Moment (Debye)
         X       0.0000      Y       0.0000      Z      -2.9463
       Tot       2.9463
    Quadrupole Moments (Debye-Ang)
        XX     -27.4525     XY      -0.0000     YY     -27.4525
        XZ       0.0000     YZ       0.0000     ZZ     -58.9863
    Octopole Moments (Debye-Ang^2)
       XXX       0.8981    XXY       0.0000    XYY      -0.8981
       YYY       0.0000    XXZ       7.2540    XYZ      -0.0000
       YYZ       7.2540    XZZ       0.0000    YZZ       0.0000
       ZZZ     -27.3147
    Hexadecapole Moments (Debye-Ang^3)
      XXXX     -37.9262   XXXY      -0.0000   XXYY     -12.6421
      XYYY      -0.0000   YYYY     -37.9262   XXXZ       0.5005
      XXYZ       0.0000   XYYZ      -0.5005   YYYZ       0.0000
      XXZZ     -92.3478   XYZZ       0.0000   YYZZ     -92.3478
      XZZZ       0.0000   YZZZ       0.0000   ZZZZ    -667.8588
 -----------------------------------------------------------------
Archival summary:
1\1\Deborahs-MacBook-Air.local\OPT\MP2\6-311G**\l1113(1-,1)\WedMay714:07:322014WedMay714:07:322014\0\\#,OPT,MP2,6-311G**,\\-1,1\Cl\C,1,2.12057\H,2,1.07231,1,97.0691\H,2,1.07231,1,97.0691,3,-120,0\H,2,1.07231,1,97.0691,3,120,0\F,2,2.06,1,180,3,0,0\\HF=-598.573572\MP2=-599.166987\\@

 Total job time:  32.95s(wall), 32.74s(cpu) 
 Wed May  7 14:07:32 2014

        *************************************************************
        *                                                           *
        *  Thank you very much for using Q-Chem.  Have a nice day.  *
        *                                                           *
        *************************************************************


 
User input: 2 of 9 
 
/Users/Deb/Programs/trunk/build/qcprog.exe .fch3cl-_ts_fine.inp.30421.qcin.2 /tmp/qchem30421/

                  Welcome to Q-Chem
     A Quantum Leap Into The Future Of Chemistry

 Y. Shao, L. Fusti-Molnar, Y. Jung, J. Kussmann, C. Ochsenfeld, S. T. Brown, 
 A. T. B. Gilbert, L. V. Slipchenko, S. V. Levchenko, D. P. O'Neill, 
 R. A. DiStasio Jr., R. C. Lochan, T. Wang, G. J. O. Beran, N. A. Besley, 
 J. M. Herbert, C. Y. Lin, T. Van Voorhis, S. H. Chien, A. Sodt, R. P. Steele, 
 V. A. Rassolov, P. E. Maslen, P. P. Korambath, R. D. Adamson, B. Austin, 
 J. Baker, E. F. C. Byrd, H. Dachsel, R. J. Doerksen, A. Dreuw, B. D. Dunietz, 
 A. D. Dutoi, T. R. Furlani, S. R. Gwaltney, A. Heyden, S. Hirata, C.-P. Hsu, 
 G. Kedziora, R. Z. Khaliullin, P. Klunzinger, A. M. Lee, M. S. Lee, W. Liang, 
 I. Lotan, N. Nair, B. Peters, E. I. Proynov, P. A. Pieniazek, Y. M. Rhee, 
 J. Ritchie, E. Rosta, C. D. Sherrill, A. C. Simmonett, J. E. Subotnik, 
 H. L. Woodcock III, W. Zhang, A. T. Bell, A. K. Chakraborty, D. M. Chipman, 
 F. J. Keil, A. Warshel, W. J. Hehre, H. F. Schaefer III, J. Kong, 
 A. I. Krylov, P. M. W. Gill, M. Head-Gordon

 Additional authors for Version 3.1: 
 Z. Gan, Y. Zhao, N. E. Schultz, D. Truhlar, E. Epifanovsky, M. Oana

 Additional authors for Version 3.2: 
 R. Baer, B. R. Brooks, D. Casanova, J.-D. Chai, C.-L. Cheng, C. Cramer, 
 D. Crittenden, A. Ghysels, G. Hawkins, E. G. Hohenstein, C. Kelley, 
 W. Kurlancheek, D. Liotard, E. Livshits, P. Manohar, A. Marenich, 
 D. Neuhauser, R. Olson, M. A. Rohrdanz, K. S. Thanthiriwatte, A. J. W. Thom, 
 V. Vanovschi, C. F. Williams, Q. Wu, Z.-Q. You

 Additional authors for Version 4.0: 
 A. Aspuru-Guzik, Y. Bernard, C. Chang, J. Deng, A. Dreuw, M. Diedenhofen, 
 R. G. Edgar, D. Ghosh, W. A. Goddard III, M. Goldey, L. D. Jacobson, 
 M. Gordon, B. Kaduk, I. Kaliman, K. Khistyaev, R. King, A. Klamt, 
 D. Kosenkov, T. Kus, D. Lambrecht, A. Landau, A. W. Lange, K. Lawler, F. Liu, 
 J. Liu, R. Olivares-Amaya, S. P. Mao, J. Parkhill, N. Russ, M. Schmidt, 
 N. Shenvi, D. Small, Y. C. Su, E. Sundstrom, L. Vogt, O. Vydrov, M. Watson, 
 M. Wormit, X. Xu, S. Yeganeh, I. Y. Zhang, D. Zuev

 Additional authors for Version 4.1: 
 X. Feng, M. W. D. Hanson-Heine, P. Horn, H. Ji, A. Laurent, R. Peverati, 
 N. Mardirossian, N. Sergueev, S. Sharada, P. Zimmerman

 Q-Chem, Version 4.1, Q-Chem, Inc., Pittsburgh, PA (2013).

 Parts of Q-Chem use Armadillo 4.100.2 (Dirt Cruiser).
 http://arma.sourceforge.net/

 MAC (Intel) OSX Version 4.1.2

 Q-chem begins on Wed May  7 14:07:32 2014  

Deborahs-MacBook-Air.local
Host: 0

     Scratch files written to /tmp/qchem30421//
 Apr1114 |Users|Deb|Programs|trunk|libmdc|qstr_info.C -1
Finally everything over in PARseQInput

--------------------------------------------------------------
User input:
--------------------------------------------------------------
$molecule
-1 1
F 0.000000 0.000000 -2.537929
C 0.000000 0.000000 -0.488372
H 1.062087 0.000000 -0.614972
H -0.531044 0.919794 -0.614972
H -0.531044 -0.919794 -0.614972
Cl 0.000000 0.000000 1.624501
$end

$rem
JOBTYPE OPT
EXCHANGE HF
CORRELATION MP2
BASIS 6-311G**
SCF_GUESS READ 
$end

$opt
CONSTRAINT
stre 1 2 2.07
ENDCONSTRAINT
$end
--------------------------------------------------------------
 Atom   1: (  0.0000000436,  0.0000000000,  2.5379292286)
         ->(  0.0000000109, -0.0000000189,  2.5379292286)
 Atom   1: (  0.0000000109, -0.0000000189,  2.5379292286)
         ->(  0.0000000109,  0.0000000000,  2.5379292286)
 Atom   1: (  0.0000000109,  0.0000000000,  2.5379292286)
         ->(  0.0000000027,  0.0000000047,  2.5379292286)
 Atom   1: (  0.0000000027,  0.0000000047,  2.5379292286)
         ->( -0.0000000014,  0.0000000024,  2.5379292286)
 Atom   2: (  0.0000000315,  0.0000000000,  0.4883722286)
         ->(  0.0000000079, -0.0000000136,  0.4883722286)
 Atom   2: (  0.0000000079, -0.0000000136,  0.4883722286)
         ->(  0.0000000079,  0.0000000000,  0.4883722286)
 Atom   2: (  0.0000000079,  0.0000000000,  0.4883722286)
         ->(  0.0000000020,  0.0000000034,  0.4883722286)
 Atom   2: (  0.0000000020,  0.0000000034,  0.4883722286)
         ->( -0.0000000010,  0.0000000017,  0.4883722286)
 Atom   4: ( -0.5310439678, -0.9197940000,  0.6149722317)
         ->( -0.5310435161, -0.9197943509,  0.6149722223)
 Atom   5: ( -0.5310439678,  0.9197940000,  0.6149722317)
         ->( -0.5310435161,  0.9197943509,  0.6149722223)
 Atom   6: (  0.0000000189,  0.0000000000, -1.6245007714)
         ->(  0.0000000047, -0.0000000082, -1.6245007714)
 Atom   6: (  0.0000000047, -0.0000000082, -1.6245007714)
         ->(  0.0000000047,  0.0000000000, -1.6245007714)
 Atom   6: (  0.0000000047,  0.0000000000, -1.6245007714)
         ->(  0.0000000012,  0.0000000021, -1.6245007714)
 ----------------------------------------------------------------
             Standard Nuclear Orientation (Angstroms)
    I     Atom           X                Y                Z
 ----------------------------------------------------------------
    1      F      -0.0000000014     0.0000000024     2.5379292286
    2      C      -0.0000000010     0.0000000017     0.4883722286
    3      H       1.0620870322     0.0000000000     0.6149722223
    4      H      -0.5310435161    -0.9197943509     0.6149722223
    5      H      -0.5310435161     0.9197943509     0.6149722223
    6      Cl      0.0000000012     0.0000000021    -1.6245007714
 ----------------------------------------------------------------
 Molecular Point Group                 C3v   NOp =  6
 Largest Abelian Subgroup              Cs    NOp =  2
 Nuclear Repulsion Energy =    86.1006736723 hartrees
 There are       18 alpha and       18 beta electrons
 Requested basis set is 6-311G(d,p)
 There are 34 shells and 80 basis functions

Total QAlloc Memory Limit   2000 MB
Mega-Array Size        61 MB
MEM_STATIC part        62 MB
 A cutoff of  1.0D-11 yielded    558 shell pairs
 There are      3066 function pairs (      3293 Cartesian)
 Smallest overlap matrix eigenvalue = 1.07E-02

  Scale SEOQF with 1.000000e+00/1.000000e+00/1.000000e-01

 Standard Electronic Orientation quadrupole field applied
 Nucleus-field energy     =    -0.0000000095 hartrees
 Guess MOs from SCF MO coefficient file
Reading MOs from coefficient file
Reading MOs from coefficient file
 A restricted Hartree-Fock SCF calculation will be
 performed using Pulay DIIS extrapolation
 SCF converges when DIIS error is below 1.0E-08
 ---------------------------------------
  Cycle       Energy         DIIS Error
 ---------------------------------------
    1    -598.5777138457      2.99E-04
    2    -598.5735941160      3.89E-05
    3    -598.5735956167      1.65E-05
    4    -598.5735958487      4.00E-06
    5    -598.5735958800      1.14E-06
    6    -598.5735958830      5.48E-07
    7    -598.5735958834      1.18E-07
    8    -598.5735958834      3.16E-08
    9    -598.5735958834      7.48E-09 Convergence criterion met
 ---------------------------------------
 SCF time:  CPU 1.28 s  wall 1.28 s
 SCF   energy in the final basis set = -598.5735958834
 Total energy in the final basis set = -598.5735958834

 Components of the MP2 correlation energy:
        aaaa  correlation energy =        -0.0709759872 au
        abab  correlation energy =        -0.4516078381 au
        bbbb  correlation energy =        -0.0709759872 au
        non-Brillouin singles    =        -0.0000000000 au

 Total  MP2   correlation energy =        -0.5935598125 au
        MP2         total energy =      -599.1671556960 au

  Entering Z-vector solver.
OV_DIM:  Setting MaxSz  = 1116
OV_DIM:  Setting MaxSpc = 1116
   1         0           1      0.000557    0.000557
   2         0           1      0.000175    0.000175
   3         0           1      0.000061    0.000061
   4         0           1      0.000017    0.000017
   5         0           1      0.000004    0.000004
   6         1           0      0.000000    0.000000    Roots Converged
 Analysis of SCF Wavefunction

 --------------------------------------------------------------
             Orbital Energies (a.u.) and Symmetries
 --------------------------------------------------------------

 Alpha MOs, Restricted
 -- Occupied --                  
-104.60  -25.86  -11.14  -10.33   -7.79   -7.79   -7.79   -1.14
  1 A1    2 A1    3 A1    4 A1    5 A1    1 E     1 E     6 A1                 
 -0.876  -0.745  -0.452  -0.452  -0.308  -0.250  -0.250  -0.236
  7 A1    8 A1    2 E     2 E     9 A1    3 E     3 E     4 E                  
 -0.236  -0.203
  4 E    10 A1                                                                 
 -- Virtual --                   
  0.320   0.357   0.383   0.383   0.580   0.613   0.613   0.628
 11 A1   12 A1    5 E     5 E    13 A1    6 E     6 E     7 E                  
  0.628   0.843   0.915   0.950   0.950   1.151   1.192   1.305
  7 E    14 A1   15 A1    8 E     8 E    16 A1   17 A1    9 E                  
  1.305   1.374   1.374   1.470   1.470   1.472   1.616   1.660
  9 E    10 E    10 E    11 E    11 E    18 A1   19 A1   12 E                  
  1.660   1.824   1.874   1.874   1.932   2.168   2.237   2.237
 12 E     1 A2   13 E    13 E    20 A1   21 A1   14 E    14 E                  
  2.458   2.458   2.481   2.719   2.719   2.768   2.901   2.901
 15 E    15 E    22 A1   16 E    16 E    23 A1   17 E    17 E                  
  2.998   3.118   3.118   3.431   3.445   4.280   4.280   4.629
 24 A1   18 E    18 E    25 A1   26 A1   19 E    19 E    20 E                  
  4.629   4.633   4.633   4.722   7.084   7.084   7.203  10.402
 20 E    21 E    21 E    27 A1   22 E    22 E    28 A1   29 A1                 
 25.183  26.503  26.503  26.939  69.066 219.225
 30 A1   23 E    23 E    31 A1   32 A1   33 A1                                 

 Beta MOs, Restricted
 -- Occupied --                  
-104.60  -25.86  -11.14  -10.33   -7.79   -7.79   -7.79   -1.14
  1 A1    2 A1    3 A1    4 A1    5 A1    1 E     1 E     6 A1                 
 -0.876  -0.745  -0.452  -0.452  -0.308  -0.250  -0.250  -0.236
  7 A1    8 A1    2 E     2 E     9 A1    3 E     3 E     4 E                  
 -0.236  -0.203
  4 E    10 A1                                                                 
 -- Virtual --                   
  0.320   0.357   0.383   0.383   0.580   0.613   0.613   0.628
 11 A1   12 A1    5 E     5 E    13 A1    6 E     6 E     7 E                  
  0.628   0.843   0.915   0.950   0.950   1.151   1.192   1.305
  7 E    14 A1   15 A1    8 E     8 E    16 A1   17 A1    9 E                  
  1.305   1.374   1.374   1.470   1.470   1.472   1.616   1.660
  9 E    10 E    10 E    11 E    11 E    18 A1   19 A1   12 E                  
  1.660   1.824   1.874   1.874   1.932   2.168   2.237   2.237
 12 E     1 A2   13 E    13 E    20 A1   21 A1   14 E    14 E                  
  2.458   2.458   2.481   2.719   2.719   2.768   2.901   2.901
 15 E    15 E    22 A1   16 E    16 E    23 A1   17 E    17 E                  
  2.998   3.118   3.118   3.431   3.445   4.280   4.280   4.629
 24 A1   18 E    18 E    25 A1   26 A1   19 E    19 E    20 E                  
  4.629   4.633   4.633   4.722   7.084   7.084   7.203  10.402
 20 E    21 E    21 E    27 A1   22 E    22 E    28 A1   29 A1                 
 25.183  26.503  26.503  26.939  69.066 219.225
 30 A1   23 E    23 E    31 A1   32 A1   33 A1                                 
 --------------------------------------------------------------

          Ground-State Mulliken Net Atomic Charges

     Atom                 Charge (a.u.)
  ----------------------------------------
      1 F                    -0.724263
      2 C                    -0.125625
      3 H                     0.139079
      4 H                     0.139079
      5 H                     0.139079
      6 Cl                   -0.567350
  ----------------------------------------
  Sum of atomic charges =    -1.000000

 -----------------------------------------------------------------
                    Cartesian Multipole Moments
 -----------------------------------------------------------------
    Charge (ESU x 10^10)
                -4.8032
    Dipole Moment (Debye)
         X       0.0000      Y      -0.0000      Z      -2.9206
       Tot       2.9206
    Quadrupole Moments (Debye-Ang)
        XX     -27.4473     XY       0.0000     YY     -27.4473
        XZ       0.0000     YZ      -0.0000     ZZ     -58.7597
    Octopole Moments (Debye-Ang^2)
       XXX       0.8893    XXY      -0.0000    XYY      -0.8893
       YYY      -0.0000    XXZ       7.1267    XYZ       0.0000
       YYZ       7.1267    XZZ       0.0000    YZZ      -0.0000
       ZZZ     -27.2120
    Hexadecapole Moments (Debye-Ang^3)
      XXXX     -37.8829   XXXY       0.0000   XXYY     -12.6276
      XYYY       0.0000   YYYY     -37.8829   XXXZ       0.4884
      XXYZ       0.0000   XYYZ      -0.4884   YYYZ       0.0000
      XXZZ     -91.6199   XYZZ       0.0000   YYZZ     -91.6199
      XZZZ       0.0000   YZZZ      -0.0000   ZZZZ    -661.4478
 -----------------------------------------------------------------
 DrvMan is completing analytic gradient of the MP2 energy
 MP2 relaxed dipole moment
            1
    1   0.0000000
    2  -0.0000000
    3  -1.1490678
	Magnitude:	 1.149 au	 2.921 Debye
 MP2 energy read as -599.167156
 Full Analytical Gradient of MP2 Energy (in au.)
             1             2             3             4             5
    1   -0.00000000   -0.00000000   -0.00180364    0.00090182    0.00090182
    2    0.00000000    0.00000000   -0.00000000    0.00156199   -0.00156200
    3    0.01013536   -0.01000157   -0.00072550   -0.00072550   -0.00072550
             6
    1   -0.00000000
    2   -0.00000000
    3    0.00204272
 Gradient time:  CPU 0.01 s  wall 0.01 s
 Geometry Optimization Parameters
   NAtoms,    NIC,     NZ,  NCons,   NDum,   NFix, NCnnct, MaxDiis
        6      63       0       1       0       0       0       0


** CONSTRAINED OPTIMIZATION IN DELOCALIZED INTERNAL COORDINATES **
   Searching for a Minimum

   Optimization Cycle:   1

                       Coordinates (Angstroms)
     ATOM                X               Y               Z
      1  F         0.0000000000    0.0000000000    2.5379292286
      2  C         0.0000000000    0.0000000000    0.4883722286
      3  H         1.0620870322    0.0000000000    0.6149722223
      4  H        -0.5310435161   -0.9197943509    0.6149722223
      5  H        -0.5310435161    0.9197943509    0.6149722223
      6  Cl        0.0000000000    0.0000000000   -1.6245007714
   Point Group: c3v   Number of degrees of freedom:     4


   Energy is   -599.167155696

              Constraints and their Current Values
                                        Value     Constraint
   Distance(Angs):        1   2             2.049557     2.070000

 Attempting to Generate Delocalized Internal Coordinates
 GETINT wrote B to file, NVib is           12
 GETINT wrote B to file, NVib is            4
 calling HSSCONV
 HCONV 3*NATOMS:           18
 wrote HINT to file
  writing hessian 

   Using Lagrange Multiplier Algorithm


  5 Hessian modes will be used to form the next step
  Hessian Eigenvalues:
    -0.960797    0.069437    0.114964    0.309775    1.040803

 Minimum Search - Taking P-RFO Step
 Searching for Lamda that Maximizes Along the Constraint modes Only
 Value Taken    Lamda =   0.00126576
 Searching for Lamda that Minimizes Along All other modes
 Value Taken    Lamda =  -0.00042919
 Step Taken.  Stepsize is  0.043940

                             Maximum     Tolerance    Cnvgd?
         Gradient           0.038632      0.000300      NO
         Displacement       0.038593      0.001200      NO
         Energy change     *********      0.000001      NO


 New Cartesian Coordinates Obtained by Inverse Iteration

 Displacement from previous Coordinates is:  0.041418
 ----------------------------------------------------------------
             Standard Nuclear Orientation (Angstroms)
    I     Atom           X                Y                Z
 ----------------------------------------------------------------
    1      F       0.0000000000     0.0000000000     2.5530192093
    2      C       0.0000000000     0.0000000000     0.4830396665
    3      H       1.0621114654     0.0000000000     0.6166198081
    4      H      -0.5310557327    -0.9198155107     0.6166198081
    5      H      -0.5310557327     0.9198155107     0.6166198081
    6      Cl      0.0000000000     0.0000000000    -1.6392009474
 ----------------------------------------------------------------
 Molecular Point Group                 C3v   NOp =  6
 Largest Abelian Subgroup              Cs    NOp =  2
 Nuclear Repulsion Energy =    85.6055446935 hartrees
 There are       18 alpha and       18 beta electrons
 Applying Cartesian multipole field
    Component          Value
    ---------          -----
     (2,0,0)        1.00000E-10
     (0,2,0)        2.00000E-10
     (0,0,2)       -3.00000E-11
 Nucleus-field energy     =    -0.0000000096 hartrees
 Requested basis set is 6-311G(d,p)
 There are 34 shells and 80 basis functions
 A cutoff of  1.0D-11 yielded    558 shell pairs
 There are      3066 function pairs (      3293 Cartesian)
 Smallest overlap matrix eigenvalue = 1.08E-02
 Guess MOs from SCF MO coefficient file
Reading MOs from coefficient file
Reading MOs from coefficient file
 A restricted Hartree-Fock SCF calculation will be
 performed using Pulay DIIS extrapolation
 SCF converges when DIIS error is below 1.0E-08
Geometry optimization detected.  Setting ReadMinima to 0
Setting SaveMinima to 0
 ---------------------------------------
  Cycle       Energy         DIIS Error
 ---------------------------------------
    1    -598.5709909458      4.50E-04
    2    -598.5736051196      6.10E-05
    3    -598.5736090877      2.71E-05
    4    -598.5736097167      9.41E-06
    5    -598.5736098409      2.83E-06
    6    -598.5736098583      1.04E-06
    7    -598.5736098599      2.60E-07
    8    -598.5736098601      6.04E-08
    9    -598.5736098601      1.85E-08
   10    -598.5736098601      3.49E-09 Convergence criterion met
 ---------------------------------------
 SCF time:  CPU 1.56 s  wall 1.57 s
 SCF   energy in the final basis set = -598.5736098601
 Total energy in the final basis set = -598.5736098601

 Components of the MP2 correlation energy:
        aaaa  correlation energy =        -0.0708761594 au
        abab  correlation energy =        -0.4514131216 au
        bbbb  correlation energy =        -0.0708761594 au
        non-Brillouin singles    =        -0.0000000000 au

 Total  MP2   correlation energy =        -0.5931654404 au
        MP2         total energy =      -599.1667753005 au

  Entering Z-vector solver.
OV_DIM:  Setting MaxSz  = 1116
OV_DIM:  Setting MaxSpc = 1116
   1         0           1      0.000561    0.000561
   2         0           1      0.000176    0.000176
   3         0           1      0.000061    0.000061
   4         0           1      0.000017    0.000017
   5         0           1      0.000004    0.000004
   6         1           0      0.000000    0.000000    Roots Converged
 Analysis of SCF Wavefunction

 --------------------------------------------------------------
             Orbital Energies (a.u.) and Symmetries
 --------------------------------------------------------------

 Alpha MOs, Restricted
 -- Occupied --                  
-104.60  -25.86  -11.14  -10.33   -7.80   -7.80   -7.80   -1.14
  1 A1    2 A1    3 A1    4 A1    5 A1    1 E     1 E     6 A1                 
 -0.876  -0.747  -0.452  -0.452  -0.307  -0.250  -0.250  -0.236
  7 A1    8 A1    2 E     2 E     9 A1    3 E     3 E     4 E                  
 -0.236  -0.204
  4 E    10 A1                                                                 
 -- Virtual --                   
  0.319   0.353   0.383   0.383   0.579   0.611   0.611   0.628
 11 A1   12 A1    5 E     5 E    13 A1    6 E     6 E     7 E                  
  0.628   0.841   0.916   0.948   0.948   1.147   1.189   1.307
  7 E    14 A1   15 A1    8 E     8 E    16 A1   17 A1    9 E                  
  1.307   1.372   1.372   1.468   1.468   1.472   1.615   1.655
  9 E    10 E    10 E    11 E    11 E    18 A1   19 A1   12 E                  
  1.655   1.823   1.872   1.872   1.931   2.155   2.230   2.230
 12 E     1 A2   13 E    13 E    20 A1   21 A1   14 E    14 E                  
  2.461   2.461   2.478   2.717   2.717   2.766   2.899   2.899
 15 E    15 E    22 A1   16 E    16 E    23 A1   17 E    17 E                  
  2.991   3.113   3.113   3.427   3.440   4.276   4.276   4.631
 24 A1   18 E    18 E    25 A1   26 A1   19 E    19 E    20 E                  
  4.631   4.634   4.634   4.717   7.084   7.084   7.204  10.398
 20 E    21 E    21 E    27 A1   22 E    22 E    28 A1   29 A1                 
 25.178  26.500  26.500  26.926  69.066 219.221
 30 A1   23 E    23 E    31 A1   32 A1   33 A1                                 

 Beta MOs, Restricted
 -- Occupied --                  
-104.60  -25.86  -11.14  -10.33   -7.80   -7.80   -7.80   -1.14
  1 A1    2 A1    3 A1    4 A1    5 A1    1 E     1 E     6 A1                 
 -0.876  -0.747  -0.452  -0.452  -0.307  -0.250  -0.250  -0.236
  7 A1    8 A1    2 E     2 E     9 A1    3 E     3 E     4 E                  
 -0.236  -0.204
  4 E    10 A1                                                                 
 -- Virtual --                   
  0.319   0.353   0.383   0.383   0.579   0.611   0.611   0.628
 11 A1   12 A1    5 E     5 E    13 A1    6 E     6 E     7 E                  
  0.628   0.841   0.916   0.948   0.948   1.147   1.189   1.307
  7 E    14 A1   15 A1    8 E     8 E    16 A1   17 A1    9 E                  
  1.307   1.372   1.372   1.468   1.468   1.472   1.615   1.655
  9 E    10 E    10 E    11 E    11 E    18 A1   19 A1   12 E                  
  1.655   1.823   1.872   1.872   1.931   2.155   2.230   2.230
 12 E     1 A2   13 E    13 E    20 A1   21 A1   14 E    14 E                  
  2.461   2.461   2.478   2.717   2.717   2.766   2.899   2.899
 15 E    15 E    22 A1   16 E    16 E    23 A1   17 E    17 E                  
  2.991   3.113   3.113   3.427   3.440   4.276   4.276   4.631
 24 A1   18 E    18 E    25 A1   26 A1   19 E    19 E    20 E                  
  4.631   4.634   4.634   4.717   7.084   7.084   7.204  10.398
 20 E    21 E    21 E    27 A1   22 E    22 E    28 A1   29 A1                 
 25.178  26.500  26.500  26.926  69.066 219.221
 30 A1   23 E    23 E    31 A1   32 A1   33 A1                                 
 --------------------------------------------------------------

          Ground-State Mulliken Net Atomic Charges

     Atom                 Charge (a.u.)
  ----------------------------------------
      1 F                    -0.727078
      2 C                    -0.129361
      3 H                     0.140318
      4 H                     0.140318
      5 H                     0.140318
      6 Cl                   -0.564514
  ----------------------------------------
  Sum of atomic charges =    -1.000000

 -----------------------------------------------------------------
                    Cartesian Multipole Moments
 -----------------------------------------------------------------
    Charge (ESU x 10^10)
                -4.8032
    Dipole Moment (Debye)
         X       0.0000      Y      -0.0000      Z      -3.0197
       Tot       3.0197
    Quadrupole Moments (Debye-Ang)
        XX     -27.4453     XY      -0.0000     YY     -27.4453
        XZ       0.0000     YZ       0.0000     ZZ     -59.1747
    Octopole Moments (Debye-Ang^2)
       XXX       0.8944    XXY       0.0000    XYY      -0.8944
       YYY       0.0000    XXZ       7.2553    XYZ      -0.0000
       YYZ       7.2553    XZZ       0.0000    YZZ      -0.0000
       ZZZ     -28.0382
    Hexadecapole Moments (Debye-Ang^3)
      XXXX     -37.8668   XXXY      -0.0000   XXYY     -12.6223
      XYYY      -0.0000   YYYY     -37.8668   XXXZ       0.4988
      XXYZ       0.0000   XYYZ      -0.4988   YYYZ       0.0000
      XXZZ     -92.7294   XYZZ       0.0000   YYZZ     -92.7294
      XZZZ       0.0000   YZZZ       0.0000   ZZZZ    -672.2575
 -----------------------------------------------------------------
 DrvMan is completing analytic gradient of the MP2 energy
 MP2 relaxed dipole moment
            1
    1   0.0000000
    2  -0.0000000
    3  -1.1880369
	Magnitude:	 1.188 au	 3.020 Debye
 MP2 energy read as -599.166775
 Full Analytical Gradient of MP2 Energy (in au.)
[...]
      XXZZ     -87.7976   XYZZ       0.0000   YYZZ     -87.7976
      XZZZ       0.0000   YZZZ       0.0000   ZZZZ    -643.3647
 -----------------------------------------------------------------
 DrvMan is completing analytic gradient of the MP2 energy
 MP2 relaxed dipole moment
            1
    1   0.0000000
    2   0.0000000
    3  -1.9064237
	Magnitude:	 1.906 au	 4.846 Debye
 MP2 energy read as -599.167114
 Full Analytical Gradient of MP2 Energy (in au.)
             1             2             3             4             5
    1    0.00000000    0.00000000   -0.00045068    0.00022534    0.00022534
    2   -0.00000000    0.00000000    0.00000000    0.00039030   -0.00039030
    3   -0.00546774    0.00586943   -0.00017498   -0.00017498   -0.00017498
             6
    1   -0.00000000
    2   -0.00000000
    3    0.00012326
 Gradient time:  CPU 0.01 s  wall 0.01 s
 Geometry Optimization Parameters
   NAtoms,    NIC,     NZ,  NCons,   NDum,   NFix, NCnnct, MaxDiis
        6      63       0       1       0       0       0       0

 Cartesian Hessian Update
 Hessian Updated using BFGS Update


** CONSTRAINED OPTIMIZATION IN DELOCALIZED INTERNAL COORDINATES **
   Searching for a Minimum

   Optimization Cycle:   8

                       Coordinates (Angstroms)
     ATOM                X               Y               Z
      1  F         0.0000000000    0.0000000000    2.5290175270
      2  C         0.0000000000    0.0000000000    0.3890178516
      3  H         1.0449337624    0.0000000000    0.6349393211
      4  H        -0.5224668812   -0.9049391835    0.6349393211
      5  H        -0.5224668812    0.9049391835    0.6349393211
      6  Cl        0.0000000000    0.0000000000   -1.5761359894
   Point Group: c3v   Number of degrees of freedom:     4


   Energy is   -599.167113725

              Constraints and their Current Values
                                        Value     Constraint
   Distance(Angs):        1   2             2.140000     2.140000
 GETINT wrote B to file, NVib is            4
 Hessian Updated using BFGS Update

  3 Hessian modes will be used to form the next step
  Hessian Eigenvalues:
     0.009262    0.110415    0.408287

 Minimum Search - Taking Simple RFO Step
 Searching for Lamda that Minimizes Along All modes
 Value Taken    Lamda =  -0.00000158
 Step Taken.  Stepsize is  0.004462

                             Maximum     Tolerance    Cnvgd?
         Gradient           0.000696      0.000300      NO
         Displacement       0.004085      0.001200      NO
         Energy change     -0.000051      0.000001      NO


 New Cartesian Coordinates Obtained by Inverse Iteration

 Displacement from previous Coordinates is:  0.002181
 ----------------------------------------------------------------
             Standard Nuclear Orientation (Angstroms)
    I     Atom           X                Y                Z
 ----------------------------------------------------------------
    1      F       0.0000000000     0.0000000000     2.5285452668
    2      C       0.0000000000     0.0000000000     0.3885455914
    3      H       1.0452166381     0.0000000000     0.6353632731
    4      H      -0.5226083190    -0.9051841610     0.6353632731
    5      H      -0.5226083190     0.9051841610     0.6353632731
    6      Cl      0.0000000000     0.0000000000    -1.5764633248
 ----------------------------------------------------------------
 Molecular Point Group                 C3v   NOp =  6
 Largest Abelian Subgroup              Cs    NOp =  2
 Nuclear Repulsion Energy =    87.9299023538 hartrees
 There are       18 alpha and       18 beta electrons
 Applying Cartesian multipole field
    Component          Value
    ---------          -----
     (2,0,0)        1.00000E-10
     (0,2,0)        2.00000E-10
     (0,0,2)       -3.00000E-11
 Nucleus-field energy     =    -0.0000000092 hartrees
 Requested basis set is 6-311G(d,p)
 There are 34 shells and 80 basis functions
 A cutoff of  1.0D-11 yielded    561 shell pairs
 There are      3073 function pairs (      3301 Cartesian)
 Smallest overlap matrix eigenvalue = 1.00E-02
 Guess MOs from SCF MO coefficient file
Reading MOs from coefficient file
Reading MOs from coefficient file
 A restricted Hartree-Fock SCF calculation will be
 performed using Pulay DIIS extrapolation
 SCF converges when DIIS error is below 1.0E-08
Geometry optimization detected.  Setting ReadMinima to 0
Setting SaveMinima to 0
 ---------------------------------------
  Cycle       Energy         DIIS Error
 ---------------------------------------
    1    -598.5700886798      3.36E-05
    2    -598.5705740878      8.64E-06
    3    -598.5705741529      3.77E-06
    4    -598.5705741646      5.64E-07
    5    -598.5705741653      2.18E-07
    6    -598.5705741654      9.37E-08
    7    -598.5705741654      3.17E-08
    8    -598.5705741654      4.40E-09 Convergence criterion met
 ---------------------------------------
 SCF time:  CPU 1.20 s  wall 1.21 s
 SCF   energy in the final basis set = -598.5705741654
 Total energy in the final basis set = -598.5705741654

 Components of the MP2 correlation energy:
        aaaa  correlation energy =        -0.0716257093 au
        abab  correlation energy =        -0.4532891222 au
        bbbb  correlation energy =        -0.0716257093 au
        non-Brillouin singles    =        -0.0000000000 au

 Total  MP2   correlation energy =        -0.5965405408 au
        MP2         total energy =      -599.1671147062 au

  Entering Z-vector solver.
OV_DIM:  Setting MaxSz  = 1116
OV_DIM:  Setting MaxSpc = 1116
   1         0           1      0.000463    0.000463
   2         0           1      0.000134    0.000134
   3         0           1      0.000044    0.000044
   4         0           1      0.000013    0.000013
   5         0           1      0.000003    0.000003
   6         1           0      0.000000    0.000000    Roots Converged
 Analysis of SCF Wavefunction

 --------------------------------------------------------------
             Orbital Energies (a.u.) and Symmetries
 --------------------------------------------------------------

 Alpha MOs, Restricted
 -- Occupied --                  
-104.63  -25.83  -11.12  -10.35   -7.82   -7.82   -7.82   -1.11
  1 A1    2 A1    3 A1    4 A1    5 A1    1 E     1 E     6 A1                 
 -0.909  -0.733  -0.433  -0.433  -0.331  -0.262  -0.262  -0.209
  7 A1    8 A1    2 E     2 E     9 A1    3 E     3 E     4 E                  
 -0.209  -0.190
  4 E    10 A1                                                                 
 -- Virtual --                   
  0.330   0.366   0.393   0.393   0.581   0.611   0.611   0.620
 11 A1   12 A1    5 E     5 E    13 A1    6 E     6 E     7 E                  
  0.620   0.855   0.906   0.961   0.961   1.185   1.190   1.272
  7 E    14 A1   15 A1    8 E     8 E    16 A1   17 A1    9 E                  
  1.272   1.349   1.349   1.448   1.494   1.494   1.633   1.680
  9 E    10 E    10 E    18 A1   11 E    11 E    19 A1   12 E                  
  1.680   1.859   1.904   1.904   2.028   2.190   2.190   2.202
 12 E     1 A2   13 E    13 E    20 A1   14 E    14 E    21 A1                 
  2.484   2.542   2.542   2.720   2.720   2.823   2.923   2.923
 22 A1   15 E    15 E    16 E    16 E    23 A1   17 E    17 E                  
  2.958   3.084   3.084   3.447   3.574   4.294   4.294   4.662
 24 A1   18 E    18 E    25 A1   26 A1   19 E    19 E    20 E                  
  4.662   4.664   4.664   4.742   7.118   7.118   7.232  10.404
 20 E    21 E    21 E    27 A1   22 E    22 E    28 A1   29 A1                 
 25.195  26.493  26.493  27.001  69.095 219.227
 30 A1   23 E    23 E    31 A1   32 A1   33 A1                                 

 Beta MOs, Restricted
 -- Occupied --                  
-104.63  -25.83  -11.12  -10.35   -7.82   -7.82   -7.82   -1.11
  1 A1    2 A1    3 A1    4 A1    5 A1    1 E     1 E     6 A1                 
 -0.909  -0.733  -0.433  -0.433  -0.331  -0.262  -0.262  -0.209
  7 A1    8 A1    2 E     2 E     9 A1    3 E     3 E     4 E                  
 -0.209  -0.190
  4 E    10 A1                                                                 
 -- Virtual --                   
  0.330   0.366   0.393   0.393   0.581   0.611   0.611   0.620
 11 A1   12 A1    5 E     5 E    13 A1    6 E     6 E     7 E                  
  0.620   0.855   0.906   0.961   0.961   1.185   1.190   1.272
  7 E    14 A1   15 A1    8 E     8 E    16 A1   17 A1    9 E                  
  1.272   1.349   1.349   1.448   1.494   1.494   1.633   1.680
  9 E    10 E    10 E    18 A1   11 E    11 E    19 A1   12 E                  
  1.680   1.859   1.904   1.904   2.028   2.190   2.190   2.202
 12 E     1 A2   13 E    13 E    20 A1   14 E    14 E    21 A1                 
  2.484   2.542   2.542   2.720   2.720   2.823   2.923   2.923
 22 A1   15 E    15 E    16 E    16 E    23 A1   17 E    17 E                  
  2.958   3.084   3.084   3.447   3.574   4.294   4.294   4.662
 24 A1   18 E    18 E    25 A1   26 A1   19 E    19 E    20 E                  
  4.662   4.664   4.664   4.742   7.118   7.118   7.232  10.404
 20 E    21 E    21 E    27 A1   22 E    22 E    28 A1   29 A1                 
 25.195  26.493  26.493  27.001  69.095 219.227
 30 A1   23 E    23 E    31 A1   32 A1   33 A1                                 
 --------------------------------------------------------------

          Ground-State Mulliken Net Atomic Charges

     Atom                 Charge (a.u.)
  ----------------------------------------
      1 F                    -0.780718
      2 C                    -0.185504
      3 H                     0.136349
      4 H                     0.136349
      5 H                     0.136349
      6 Cl                   -0.442827
  ----------------------------------------
  Sum of atomic charges =    -1.000000

 -----------------------------------------------------------------
                    Cartesian Multipole Moments
 -----------------------------------------------------------------
    Charge (ESU x 10^10)
                -4.8032
    Dipole Moment (Debye)
         X       0.0000      Y       0.0000      Z      -4.8458
       Tot       4.8458
    Quadrupole Moments (Debye-Ang)
        XX     -27.3292     XY       0.0000     YY     -27.3292
        XZ       0.0000     YZ      -0.0000     ZZ     -58.4120
    Octopole Moments (Debye-Ang^2)
       XXX       0.7732    XXY      -0.0000    XYY      -0.7732
       YYY      -0.0000    XXZ       5.8707    XYZ      -0.0000
       YYZ       5.8707    XZZ       0.0000    YZZ       0.0000
       ZZZ     -39.9040
    Hexadecapole Moments (Debye-Ang^3)
      XXXX     -37.4704   XXXY       0.0000   XXYY     -12.4901
      XYYY       0.0000   YYYY     -37.4704   XXXZ       0.4571
      XXYZ      -0.0000   XYYZ      -0.4571   YYYZ      -0.0000
      XXZZ     -87.7963   XYZZ       0.0000   YYZZ     -87.7963
      XZZZ       0.0000   YZZZ      -0.0000   ZZZZ    -643.2523
 -----------------------------------------------------------------
 DrvMan is completing analytic gradient of the MP2 energy
 MP2 relaxed dipole moment
            1
    1   0.0000000
    2   0.0000000
    3  -1.9064810
	Magnitude:	 1.906 au	 4.846 Debye
 MP2 energy read as -599.167115
 Full Analytical Gradient of MP2 Energy (in au.)
             1             2             3             4             5
    1    0.00000000    0.00000000   -0.00012747    0.00006373    0.00006373
    2   -0.00000000    0.00000000    0.00000000    0.00011039   -0.00011039
    3   -0.00555338    0.00562917   -0.00003746   -0.00003746   -0.00003746
             6
    1   -0.00000000
    2   -0.00000000
    3    0.00003658
 Gradient time:  CPU 0.01 s  wall 0.01 s
 Geometry Optimization Parameters
   NAtoms,    NIC,     NZ,  NCons,   NDum,   NFix, NCnnct, MaxDiis
        6      63       0       1       0       0       0       0

 Cartesian Hessian Update
 Hessian Updated using BFGS Update


** CONSTRAINED OPTIMIZATION IN DELOCALIZED INTERNAL COORDINATES **
   Searching for a Minimum

   Optimization Cycle:   9

                       Coordinates (Angstroms)
     ATOM                X               Y               Z
      1  F         0.0000000000    0.0000000000    2.5285452668
      2  C         0.0000000000    0.0000000000    0.3885455914
      3  H         1.0452166381    0.0000000000    0.6353632731
      4  H        -0.5226083190   -0.9051841610    0.6353632731
      5  H        -0.5226083190    0.9051841610    0.6353632731
      6  Cl        0.0000000000    0.0000000000   -1.5764633248
   Point Group: c3v   Number of degrees of freedom:     4


   Energy is   -599.167114706

              Constraints and their Current Values
                                        Value     Constraint
   Distance(Angs):        1   2             2.140000     2.140000
 GETINT wrote B to file, NVib is            4
 Hessian Updated using BFGS Update

  3 Hessian modes will be used to form the next step
  Hessian Eigenvalues:
     0.009661    0.108221    0.302040

 Minimum Search - Taking Simple RFO Step
 Searching for Lamda that Minimizes Along All modes
 Value Taken    Lamda =   0.00000000
 Step Taken.  Stepsize is  0.000779

                             Maximum     Tolerance    Cnvgd?
         Gradient           0.000191      0.000300     YES
         Displacement       0.000590      0.001200     YES
         Energy change     -0.000001      0.000001     YES


                       Distance Matrix (Angstroms)
             F (  1)   C (  2)   H (  3)   H (  4)   H (  5)
   C (  2)  2.140000
   H (  3)  2.162548  1.073963
   H (  4)  2.162548  1.073963  1.810368
   H (  5)  2.162548  1.073963  1.810368  1.810368
   Cl(  6)  4.105009  1.965009  2.446355  2.446355  2.446355

 Final energy is   -599.16711470621806     


 ******************************
 **  OPTIMIZATION CONVERGED  **
 ******************************

Z-matrix Print:
$molecule
-1 1
Cl
C  1 1.965009
H  2 1.073963 1 103.286446
H  2 1.073963 1 103.286446 3 -120.000000 0
H  2 1.073963 1 103.286446 3 120.000000 0
F  2 2.140000 1 180.000000 3 0.000000 0
$end

 Analysis of SCF Wavefunction

 --------------------------------------------------------------
             Orbital Energies (a.u.) and Symmetries
 --------------------------------------------------------------

 Alpha MOs, Restricted
 -- Occupied --                  
-104.63  -25.83  -11.12  -10.35   -7.82   -7.82   -7.82   -1.11
  1 A1    2 A1    3 A1    4 A1    5 A1    1 E     1 E     6 A1                 
 -0.909  -0.733  -0.433  -0.433  -0.331  -0.262  -0.262  -0.209
  7 A1    8 A1    2 E     2 E     9 A1    3 E     3 E     4 E                  
 -0.209  -0.190
  4 E    10 A1                                                                 
 -- Virtual --                   
  0.330   0.366   0.393   0.393   0.581   0.611   0.611   0.620
 11 A1   12 A1    5 E     5 E    13 A1    6 E     6 E     7 E                  
  0.620   0.855   0.906   0.961   0.961   1.185   1.190   1.272
  7 E    14 A1   15 A1    8 E     8 E    16 A1   17 A1    9 E                  
  1.272   1.349   1.349   1.448   1.494   1.494   1.633   1.680
  9 E    10 E    10 E    18 A1   11 E    11 E    19 A1   12 E                  
  1.680   1.859   1.904   1.904   2.028   2.190   2.190   2.202
 12 E     1 A2   13 E    13 E    20 A1   14 E    14 E    21 A1                 
  2.484   2.542   2.542   2.720   2.720   2.823   2.923   2.923
 22 A1   15 E    15 E    16 E    16 E    23 A1   17 E    17 E                  
  2.958   3.084   3.084   3.447   3.574   4.294   4.294   4.662
 24 A1   18 E    18 E    25 A1   26 A1   19 E    19 E    20 E                  
  4.662   4.664   4.664   4.742   7.118   7.118   7.232  10.404
 20 E    21 E    21 E    27 A1   22 E    22 E    28 A1   29 A1                 
 25.195  26.493  26.493  27.001  69.095 219.227
 30 A1   23 E    23 E    31 A1   32 A1   33 A1                                 

 Beta MOs, Restricted
 -- Occupied --                  
-104.63  -25.83  -11.12  -10.35   -7.82   -7.82   -7.82   -1.11
  1 A1    2 A1    3 A1    4 A1    5 A1    1 E     1 E     6 A1                 
 -0.909  -0.733  -0.433  -0.433  -0.331  -0.262  -0.262  -0.209
  7 A1    8 A1    2 E     2 E     9 A1    3 E     3 E     4 E                  
 -0.209  -0.190
  4 E    10 A1                                                                 
 -- Virtual --                   
  0.330   0.366   0.393   0.393   0.581   0.611   0.611   0.620
 11 A1   12 A1    5 E     5 E    13 A1    6 E     6 E     7 E                  
  0.620   0.855   0.906   0.961   0.961   1.185   1.190   1.272
  7 E    14 A1   15 A1    8 E     8 E    16 A1   17 A1    9 E                  
  1.272   1.349   1.349   1.448   1.494   1.494   1.633   1.680
  9 E    10 E    10 E    18 A1   11 E    11 E    19 A1   12 E                  
  1.680   1.859   1.904   1.904   2.028   2.190   2.190   2.202
 12 E     1 A2   13 E    13 E    20 A1   14 E    14 E    21 A1                 
  2.484   2.542   2.542   2.720   2.720   2.823   2.923   2.923
 22 A1   15 E    15 E    16 E    16 E    23 A1   17 E    17 E                  
  2.958   3.084   3.084   3.447   3.574   4.294   4.294   4.662
 24 A1   18 E    18 E    25 A1   26 A1   19 E    19 E    20 E                  
  4.662   4.664   4.664   4.742   7.118   7.118   7.232  10.404
 20 E    21 E    21 E    27 A1   22 E    22 E    28 A1   29 A1                 
 25.195  26.493  26.493  27.001  69.095 219.227
 30 A1   23 E    23 E    31 A1   32 A1   33 A1                                 
 --------------------------------------------------------------

          Ground-State Mulliken Net Atomic Charges

     Atom                 Charge (a.u.)
  ----------------------------------------
      1 F                    -0.780718
      2 C                    -0.185504
      3 H                     0.136349
      4 H                     0.136349
      5 H                     0.136349
      6 Cl                   -0.442827
  ----------------------------------------
  Sum of atomic charges =    -1.000000

 -----------------------------------------------------------------
                    Cartesian Multipole Moments
 -----------------------------------------------------------------
    Charge (ESU x 10^10)
                -4.8032
    Dipole Moment (Debye)
         X       0.0000      Y       0.0000      Z      -4.8458
       Tot       4.8458
    Quadrupole Moments (Debye-Ang)
        XX     -27.3292     XY       0.0000     YY     -27.3292
        XZ       0.0000     YZ      -0.0000     ZZ     -58.4120
    Octopole Moments (Debye-Ang^2)
       XXX       0.7732    XXY      -0.0000    XYY      -0.7732
       YYY      -0.0000    XXZ       5.8707    XYZ      -0.0000
       YYZ       5.8707    XZZ       0.0000    YZZ       0.0000
       ZZZ     -39.9040
    Hexadecapole Moments (Debye-Ang^3)
      XXXX     -37.4704   XXXY       0.0000   XXYY     -12.4901
      XYYY       0.0000   YYYY     -37.4704   XXXZ       0.4571
      XXYZ      -0.0000   XYYZ      -0.4571   YYYZ      -0.0000
      XXZZ     -87.7963   XYZZ       0.0000   YYZZ     -87.7963
      XZZZ       0.0000   YZZZ      -0.0000   ZZZZ    -643.2523
 -----------------------------------------------------------------
Archival summary:
1\1\Deborahs-MacBook-Air.local\OPT\MP2\6-311G**\l1113(1-,1)\WedMay714:16:482014WedMay714:16:482014\0\\#,OPT,MP2,6-311G**,\\-1,1\Cl\C,1,1.96501\H,2,1.07396,1,103.286\H,2,1.07396,1,103.286,3,-120,0\H,2,1.07396,1,103.286,3,120,0\F,2,2.14,1,180,3,0,0\\HF=-598.570574\MP2=-599.167115\\@

 Total job time:  68.41s(wall), 68.19s(cpu) 
 Wed May  7 14:16:48 2014

        *************************************************************
        *                                                           *
        *  Thank you very much for using Q-Chem.  Have a nice day.  *
        *                                                           *
        *************************************************************


