                  Welcome to Q-Chem
     A Quantum Leap Into The Future Of Chemistry

 Y. Shao, L. Fusti-Molnar, Y. Jung, J. Kussmann, C. Ochsenfeld, S. T. Brown, 
 A. T. B. Gilbert, L. V. Slipchenko, S. V. Levchenko, D. P. O'Neill, 
 R. A. DiStasio Jr., R. C. Lochan, T. Wang, G. J. O. Beran, N. A. Besley, 
 J. M. Herbert, C. Y. Lin, T. Van Voorhis, S. H. Chien, A. Sodt, R. P. Steele, 
 V. A. Rassolov, P. E. Maslen, P. P. Korambath, R. D. Adamson, B. Austin, 
 J. Baker, E. F. C. Byrd, H. Dachsel, R. J. Doerksen, A. Dreuw, B. D. Dunietz, 
 A. D. Dutoi, T. R. Furlani, S. R. Gwaltney, A. Heyden, S. Hirata, C.-P. Hsu, 
 G. Kedziora, R. Z. Khaliullin, P. Klunzinger, A. M. Lee, M. S. Lee, W. Liang, 
 I. Lotan, N. Nair, B. Peters, E. I. Proynov, P. A. Pieniazek, Y. M. Rhee, 
 J. Ritchie, E. Rosta, C. D. Sherrill, A. C. Simmonett, J. E. Subotnik, 
 H. L. Woodcock III, W. Zhang, A. T. Bell, A. K. Chakraborty, D. M. Chipman, 
 F. J. Keil, A. Warshel, W. J. Hehre, H. F. Schaefer III, J. Kong, 
 A. I. Krylov, P. M. W. Gill, M. Head-Gordon

 Additional authors for Version 3.1: 
 Z. Gan, Y. Zhao, N. E. Schultz, D. Truhlar, E. Epifanovsky, M. Oana

 Additional authors for Version 3.2: 
 R. Baer, B. R. Brooks, D. Casanova, J.-D. Chai, C.-L. Cheng, C. Cramer, 
 D. Crittenden, A. Ghysels, G. Hawkins, E. G. Hohenstein, C. Kelley, 
 W. Kurlancheek, D. Liotard, E. Livshits, P. Manohar, A. Marenich, 
 D. Neuhauser, R. Olson, M. A. Rohrdanz, K. S. Thanthiriwatte, A. J. W. Thom, 
 V. Vanovschi, C. F. Williams, Q. Wu, Z.-Q. You

 Additional authors for Version 4.0: 
 A. Aspuru-Guzik, Y. Bernard, C. Chang, J. Deng, A. Dreuw, M. Diedenhofen, 
 R. G. Edgar, D. Ghosh, W. A. Goddard III, M. Goldey, L. D. Jacobson, 
 M. Gordon, B. Kaduk, I. Kaliman, K. Khistyaev, R. King, A. Klamt, 
 D. Kosenkov, T. Kus, D. Lambrecht, A. Landau, A. W. Lange, K. Lawler, F. Liu, 
 J. Liu, R. Olivares-Amaya, S. P. Mao, J. Parkhill, N. Russ, M. Schmidt, 
 N. Shenvi, D. Small, Y. C. Su, E. Sundstrom, L. Vogt, O. Vydrov, M. Watson, 
 M. Wormit, X. Xu, S. Yeganeh, I. Y. Zhang, D. Zuev

 Additional authors for Version 4.1: 
 X. Feng, M. W. D. Hanson-Heine, P. Horn, H. Ji, A. Laurent, R. Peverati, 
 N. Mardirossian, N. Sergueev, S. Sharada, P. Zimmerman

 Q-Chem, Version 4.1, Q-Chem, Inc., Pittsburgh, PA (2013).

 Parts of Q-Chem use Armadillo 4.100.2 (Dirt Cruiser).
 http://arma.sourceforge.net/

 MAC (Intel) OSX Version 4.1.2

 Q-chem begins on Wed May  7 13:24:10 2014  

Deborahs-MacBook-Air.local
Host: 0

     Scratch files written to /tmp/qchem30043//
 Apr1114 |Users|Deb|Programs|trunk|libmdc|qstr_info.C -1
Finally everything over in PARseQInput

--------------------------------------------------------------
User input:
--------------------------------------------------------------
$molecule
-1 1
F 0.000000 0.000000 -2.537929
C 0.000000 0.000000 -0.488372
H 1.062087 0.000000 -0.614972
H -0.531044 0.919794 -0.614972
H -0.531044 -0.919794 -0.614972
Cl 0.000000 0.000000 1.624501
$end

$rem
JOBTYPE OPT
EXCHANGE HF
CORRELATION MP2
BASIS 6-311G**
$end

$opt
CONSTRAINT
stre 1 2 1.90
ENDCONSTRAINT
$end
--------------------------------------------------------------
 Atom   1: (  0.0000000436,  0.0000000000,  2.5379292286)
         ->(  0.0000000109, -0.0000000189,  2.5379292286)
 Atom   1: (  0.0000000109, -0.0000000189,  2.5379292286)
         ->(  0.0000000109,  0.0000000000,  2.5379292286)
 Atom   1: (  0.0000000109,  0.0000000000,  2.5379292286)
         ->(  0.0000000027,  0.0000000047,  2.5379292286)
 Atom   1: (  0.0000000027,  0.0000000047,  2.5379292286)
         ->( -0.0000000014,  0.0000000024,  2.5379292286)
 Atom   2: (  0.0000000315,  0.0000000000,  0.4883722286)
         ->(  0.0000000079, -0.0000000136,  0.4883722286)
 Atom   2: (  0.0000000079, -0.0000000136,  0.4883722286)
         ->(  0.0000000079,  0.0000000000,  0.4883722286)
 Atom   2: (  0.0000000079,  0.0000000000,  0.4883722286)
         ->(  0.0000000020,  0.0000000034,  0.4883722286)
 Atom   2: (  0.0000000020,  0.0000000034,  0.4883722286)
         ->( -0.0000000010,  0.0000000017,  0.4883722286)
 Atom   4: ( -0.5310439678, -0.9197940000,  0.6149722317)
         ->( -0.5310435161, -0.9197943509,  0.6149722223)
 Atom   5: ( -0.5310439678,  0.9197940000,  0.6149722317)
         ->( -0.5310435161,  0.9197943509,  0.6149722223)
 Atom   6: (  0.0000000189,  0.0000000000, -1.6245007714)
         ->(  0.0000000047, -0.0000000082, -1.6245007714)
 Atom   6: (  0.0000000047, -0.0000000082, -1.6245007714)
         ->(  0.0000000047,  0.0000000000, -1.6245007714)
 Atom   6: (  0.0000000047,  0.0000000000, -1.6245007714)
         ->(  0.0000000012,  0.0000000021, -1.6245007714)
 ----------------------------------------------------------------
             Standard Nuclear Orientation (Angstroms)
    I     Atom           X                Y                Z
 ----------------------------------------------------------------
    1      F      -0.0000000014     0.0000000024     2.5379292286
    2      C      -0.0000000010     0.0000000017     0.4883722286
    3      H       1.0620870322     0.0000000000     0.6149722223
    4      H      -0.5310435161    -0.9197943509     0.6149722223
    5      H      -0.5310435161     0.9197943509     0.6149722223
    6      Cl      0.0000000012     0.0000000021    -1.6245007714
 ----------------------------------------------------------------
 Molecular Point Group                 C3v   NOp =  6
 Largest Abelian Subgroup              Cs    NOp =  2
 Nuclear Repulsion Energy =    86.1006736723 hartrees
 There are       18 alpha and       18 beta electrons
 Requested basis set is 6-311G(d,p)
 There are 34 shells and 80 basis functions

Total QAlloc Memory Limit   2000 MB
Mega-Array Size        61 MB
MEM_STATIC part        62 MB
 A cutoff of  1.0D-11 yielded    558 shell pairs
 There are      3066 function pairs (      3293 Cartesian)
 Smallest overlap matrix eigenvalue = 1.07E-02

  Scale SEOQF with 1.000000e+00/1.000000e+00/1.000000e-01

 Standard Electronic Orientation quadrupole field applied
 Nucleus-field energy     =    -0.0000000095 hartrees
 Guess from superposition of atomic densities
 Warning:  Energy on first SCF cycle will be non-variational
 A restricted Hartree-Fock SCF calculation will be
 performed using Pulay DIIS extrapolation
 SCF converges when DIIS error is below 1.0E-08
 ---------------------------------------
  Cycle       Energy         DIIS Error
 ---------------------------------------
    1    -636.7756326087      2.21E+00
    2    -597.9266567937      4.31E-02
    3    -598.4805857336      1.25E-02
    4    -598.5535481454      6.24E-03
    5    -598.5719417605      7.13E-04
    6    -598.5734039318      2.68E-04
    7    -598.5735782090      8.63E-05
    8    -598.5735946887      2.49E-05
    9    -598.5735958661      3.26E-06
   10    -598.5735958826      5.97E-07
   11    -598.5735958834      1.69E-07
   12    -598.5735958834      5.35E-08
   13    -598.5735958834      2.40E-08
   14    -598.5735958834      1.28E-08
   15    -598.5735958834      2.31E-09 Convergence criterion met
 ---------------------------------------
 SCF time:  CPU 2.16 s  wall 2.23 s
 SCF   energy in the final basis set = -598.5735958834
 Total energy in the final basis set = -598.5735958834

 Components of the MP2 correlation energy:
        aaaa  correlation energy =        -0.0709759885 au
        abab  correlation energy =        -0.4516078436 au
        bbbb  correlation energy =        -0.0709759885 au
        non-Brillouin singles    =        -0.0000000000 au

 Total  MP2   correlation energy =        -0.5935598205 au
        MP2         total energy =      -599.1671557039 au

  Entering Z-vector solver.
OV_DIM:  Setting MaxSz  = 1116
OV_DIM:  Setting MaxSpc = 1116
   1         0           1      0.000557    0.000557
   2         0           1      0.000175    0.000175
   3         0           1      0.000061    0.000061
   4         0           1      0.000017    0.000017
   5         0           1      0.000004    0.000004
   6         1           0      0.000000    0.000000    Roots Converged
 Analysis of SCF Wavefunction

 --------------------------------------------------------------
             Orbital Energies (a.u.) and Symmetries
 --------------------------------------------------------------

 Alpha MOs, Restricted
 -- Occupied --                  
-104.60  -25.86  -11.14  -10.33   -7.79   -7.79   -7.79   -1.14
  1 A1    2 A1    3 A1    4 A1    5 A1    1 E     1 E     6 A1                 
 -0.876  -0.745  -0.452  -0.452  -0.308  -0.250  -0.250  -0.236
  7 A1    8 A1    2 E     2 E     9 A1    3 E     3 E     4 E                  
 -0.236  -0.203
  4 E    10 A1                                                                 
 -- Virtual --                   
  0.320   0.357   0.383   0.383   0.580   0.613   0.613   0.628
 11 A1   12 A1    5 E     5 E    13 A1    6 E     6 E     7 E                  
  0.628   0.843   0.915   0.950   0.950   1.151   1.192   1.305
  7 E    14 A1   15 A1    8 E     8 E    16 A1   17 A1    9 E                  
  1.305   1.374   1.374   1.470   1.470   1.472   1.616   1.660
  9 E    10 E    10 E    11 E    11 E    18 A1   19 A1   12 E                  
  1.660   1.824   1.874   1.874   1.932   2.168   2.237   2.237
 12 E     1 A2   13 E    13 E    20 A1   21 A1   14 E    14 E                  
  2.458   2.458   2.481   2.719   2.719   2.768   2.901   2.901
 15 E    15 E    22 A1   16 E    16 E    23 A1   17 E    17 E                  
  2.998   3.118   3.118   3.431   3.445   4.280   4.280   4.629
 24 A1   18 E    18 E    25 A1   26 A1   19 E    19 E    20 E                  
  4.629   4.633   4.633   4.722   7.084   7.084   7.203  10.402
 20 E    21 E    21 E    27 A1   22 E    22 E    28 A1   29 A1                 
 25.183  26.503  26.503  26.939  69.066 219.225
 30 A1   23 E    23 E    31 A1   32 A1   33 A1                                 

 Beta MOs, Restricted
 -- Occupied --                  
-104.60  -25.86  -11.14  -10.33   -7.79   -7.79   -7.79   -1.14
  1 A1    2 A1    3 A1    4 A1    5 A1    1 E     1 E     6 A1                 
 -0.876  -0.745  -0.452  -0.452  -0.308  -0.250  -0.250  -0.236
  7 A1    8 A1    2 E     2 E     9 A1    3 E     3 E     4 E                  
 -0.236  -0.203
  4 E    10 A1                                                                 
 -- Virtual --                   
  0.320   0.357   0.383   0.383   0.580   0.613   0.613   0.628
 11 A1   12 A1    5 E     5 E    13 A1    6 E     6 E     7 E                  
  0.628   0.843   0.915   0.950   0.950   1.151   1.192   1.305
  7 E    14 A1   15 A1    8 E     8 E    16 A1   17 A1    9 E                  
  1.305   1.374   1.374   1.470   1.470   1.472   1.616   1.660
  9 E    10 E    10 E    11 E    11 E    18 A1   19 A1   12 E                  
  1.660   1.824   1.874   1.874   1.932   2.168   2.237   2.237
 12 E     1 A2   13 E    13 E    20 A1   21 A1   14 E    14 E                  
  2.458   2.458   2.481   2.719   2.719   2.768   2.901   2.901
 15 E    15 E    22 A1   16 E    16 E    23 A1   17 E    17 E                  
  2.998   3.118   3.118   3.431   3.445   4.280   4.280   4.629
 24 A1   18 E    18 E    25 A1   26 A1   19 E    19 E    20 E                  
  4.629   4.633   4.633   4.722   7.084   7.084   7.203  10.402
 20 E    21 E    21 E    27 A1   22 E    22 E    28 A1   29 A1                 
 25.183  26.503  26.503  26.939  69.066 219.225
 30 A1   23 E    23 E    31 A1   32 A1   33 A1                                 
 --------------------------------------------------------------

          Ground-State Mulliken Net Atomic Charges

     Atom                 Charge (a.u.)
  ----------------------------------------
      1 F                    -0.724262
      2 C                    -0.125625
      3 H                     0.139079
      4 H                     0.139079
      5 H                     0.139079
      6 Cl                   -0.567350
  ----------------------------------------
  Sum of atomic charges =    -1.000000

 -----------------------------------------------------------------
                    Cartesian Multipole Moments
 -----------------------------------------------------------------
    Charge (ESU x 10^10)
                -4.8032
    Dipole Moment (Debye)
         X       0.0000      Y      -0.0000      Z      -2.9206
       Tot       2.9206
    Quadrupole Moments (Debye-Ang)
        XX     -27.4473     XY       0.0000     YY     -27.4473
        XZ       0.0000     YZ      -0.0000     ZZ     -58.7597
    Octopole Moments (Debye-Ang^2)
       XXX       0.8893    XXY      -0.0000    XYY      -0.8893
       YYY      -0.0000    XXZ       7.1267    XYZ       0.0000
       YYZ       7.1267    XZZ       0.0000    YZZ      -0.0000
       ZZZ     -27.2119
    Hexadecapole Moments (Debye-Ang^3)
      XXXX     -37.8829   XXXY       0.0000   XXYY     -12.6276
      XYYY       0.0000   YYYY     -37.8829   XXXZ       0.4884
      XXYZ       0.0000   XYYZ      -0.4884   YYYZ       0.0000
      XXZZ     -91.6199   XYZZ       0.0000   YYZZ     -91.6199
      XZZZ       0.0000   YZZZ      -0.0000   ZZZZ    -661.4478
 -----------------------------------------------------------------
 DrvMan is completing analytic gradient of the MP2 energy
 MP2 relaxed dipole moment
            1
    1   0.0000000
    2  -0.0000000
    3  -1.1490672
	Magnitude:	 1.149 au	 2.921 Debye
 MP2 energy read as -599.167156
 Full Analytical Gradient of MP2 Energy (in au.)
             1             2             3             4             5
    1   -0.00000000   -0.00000000   -0.00180362    0.00090181    0.00090181
    2    0.00000000    0.00000000   -0.00000000    0.00156198   -0.00156199
    3    0.01013535   -0.01000160   -0.00072550   -0.00072550   -0.00072550
             6
    1   -0.00000000
    2   -0.00000000
    3    0.00204274
 Gradient time:  CPU 0.01 s  wall 0.01 s
 Geometry Optimization Parameters
   NAtoms,    NIC,     NZ,  NCons,   NDum,   NFix, NCnnct, MaxDiis
        6      63       0       1       0       0       0       0


** CONSTRAINED OPTIMIZATION IN DELOCALIZED INTERNAL COORDINATES **
   Searching for a Minimum

   Optimization Cycle:   1

                       Coordinates (Angstroms)
     ATOM                X               Y               Z
      1  F         0.0000000000    0.0000000000    2.5379292286
      2  C         0.0000000000    0.0000000000    0.4883722286
      3  H         1.0620870322    0.0000000000    0.6149722223
      4  H        -0.5310435161   -0.9197943509    0.6149722223
      5  H        -0.5310435161    0.9197943509    0.6149722223
      6  Cl        0.0000000000    0.0000000000   -1.6245007714
   Point Group: c3v   Number of degrees of freedom:     4


   Energy is   -599.167155704

              Constraints and their Current Values
                                        Value     Constraint
   Distance(Angs):        1   2             2.049557     1.900000

 Attempting to Generate Delocalized Internal Coordinates
 GETINT wrote B to file, NVib is           12
 GETINT wrote B to file, NVib is            4
 calling HSSCONV
 HCONV 3*NATOMS:           18
 wrote HINT to file
  writing hessian 

   Using Lagrange Multiplier Algorithm


  5 Hessian modes will be used to form the next step
  Hessian Eigenvalues:
    -0.960797    0.069437    0.114964    0.309775    1.040803

 Minimum Search - Taking P-RFO Step
 Searching for Lamda that Maximizes Along the Constraint modes Only
 Value Taken    Lamda =   0.03873265
 Searching for Lamda that Minimizes Along All other modes
 Value Taken    Lamda =  -0.03829269
 Step Taken.  Stepsize is  0.272615

                             Maximum     Tolerance    Cnvgd?
         Gradient           0.282622      0.000300      NO
         Displacement       0.272129      0.001200      NO
         Energy change     *********      0.000001      NO


 New Cartesian Coordinates Obtained by Inverse Iteration

 Displacement from previous Coordinates is:  0.225982
 ----------------------------------------------------------------
             Standard Nuclear Orientation (Angstroms)
    I     Atom           X                Y                Z
 ----------------------------------------------------------------
    1      F       0.0000000000     0.0000000000     2.4369286540
    2      C       0.0000000000     0.0000000000     0.5313763483
    3      H       1.0783715089     0.0000000000     0.6223207790
    4      H      -0.5391857545    -0.9338971214     0.6223207790
    5      H      -0.5391857545     0.9338971214     0.6223207790
    6      Cl      0.0000000000     0.0000000000    -1.5885499868
 ----------------------------------------------------------------
 Molecular Point Group                 C3v   NOp =  6
 Largest Abelian Subgroup              Cs    NOp =  2
 Nuclear Repulsion Energy =    87.9619853948 hartrees
 There are       18 alpha and       18 beta electrons
 Applying Cartesian multipole field
    Component          Value
    ---------          -----
     (2,0,0)        1.00000E-10
     (0,2,0)        2.00000E-10
     (0,0,2)       -3.00000E-11
 Nucleus-field energy     =    -0.0000000088 hartrees
 Requested basis set is 6-311G(d,p)
 There are 34 shells and 80 basis functions
 A cutoff of  1.0D-11 yielded    559 shell pairs
 There are      3071 function pairs (      3299 Cartesian)
 Smallest overlap matrix eigenvalue = 1.09E-02
 Guess MOs from SCF MO coefficient file
Reading MOs from coefficient file
Reading MOs from coefficient file
 A restricted Hartree-Fock SCF calculation will be
 performed using Pulay DIIS extrapolation
 SCF converges when DIIS error is below 1.0E-08
Geometry optimization detected.  Setting ReadMinima to 0
Setting SaveMinima to 0
 ---------------------------------------
  Cycle       Energy         DIIS Error
 ---------------------------------------
    1    -598.5709898765      3.09E-03
    2    -598.5727587910      6.02E-04
    3    -598.5731462286      2.73E-04
    4    -598.5732198612      1.10E-04
    5    -598.5732378568      3.58E-05
    6    -598.5732407348      1.25E-05
    7    -598.5732409645      2.36E-06
    8    -598.5732409758      3.44E-07
    9    -598.5732409761      6.80E-08
   10    -598.5732409761      1.33E-08
   11    -598.5732409761      4.76E-09 Convergence criterion met
 ---------------------------------------
 SCF time:  CPU 1.85 s  wall 1.86 s
 SCF   energy in the final basis set = -598.5732409761
 Total energy in the final basis set = -598.5732409761

 Components of the MP2 correlation energy:
        aaaa  correlation energy =        -0.0714670360 au
        abab  correlation energy =        -0.4532933706 au
        bbbb  correlation energy =        -0.0714670360 au
        non-Brillouin singles    =        -0.0000000000 au

 Total  MP2   correlation energy =        -0.5962274427 au
        MP2         total energy =      -599.1694684188 au

  Entering Z-vector solver.
OV_DIM:  Setting MaxSz  = 1116
OV_DIM:  Setting MaxSpc = 1116
   1         0           1      0.000565    0.000565
   2         0           1      0.000176    0.000176
   3         0           1      0.000062    0.000062
   4         0           1      0.000017    0.000017
   5         0           1      0.000004    0.000004
   6         1           0      0.000000    0.000000    Roots Converged
 Analysis of SCF Wavefunction

 --------------------------------------------------------------
             Orbital Energies (a.u.) and Symmetries
 --------------------------------------------------------------

 Alpha MOs, Restricted
 -- Occupied --                  
-104.58  -25.89  -11.14  -10.31   -7.78   -7.78   -7.78   -1.17
  1 A1    2 A1    3 A1    4 A1    5 A1    1 E     1 E     6 A1                 
 -0.862  -0.732  -0.445  -0.445  -0.317  -0.269  -0.269  -0.226
  7 A1    8 A1    2 E     2 E     9 A1    3 E     3 E     4 E                  
 -0.226  -0.200
  4 E    10 A1                                                                 
 -- Virtual --                   
  0.322   0.381   0.384   0.384   0.592   0.619   0.619   0.639
 11 A1   12 A1    5 E     5 E    13 A1    6 E     6 E     7 E                  
  0.639   0.837   0.907   0.951   0.951   1.160   1.201   1.308
  7 E    14 A1   15 A1    8 E     8 E    16 A1   17 A1    9 E                  
  1.308   1.389   1.389   1.466   1.466   1.487   1.607   1.679
  9 E    10 E    10 E    11 E    11 E    18 A1   19 A1   12 E                  
  1.679   1.818   1.876   1.876   1.929   2.224   2.265   2.265
 12 E     1 A2   13 E    13 E    20 A1   21 A1   14 E    14 E                  
  2.434   2.434   2.477   2.732   2.732   2.760   2.890   2.890
 15 E    15 E    22 A1   16 E    16 E    23 A1   17 E    17 E                  
  2.996   3.110   3.110   3.431   3.435   4.254   4.254   4.604
 24 A1   18 E    18 E    25 A1   26 A1   19 E    19 E    20 E                  
  4.604   4.623   4.623   4.776   7.068   7.068   7.178  10.421
 20 E    21 E    21 E    27 A1   22 E    22 E    28 A1   29 A1                 
 25.155  26.520  26.520  26.958  69.060 219.247
 30 A1   23 E    23 E    31 A1   32 A1   33 A1                                 

 Beta MOs, Restricted
 -- Occupied --                  
-104.58  -25.89  -11.14  -10.31   -7.78   -7.78   -7.78   -1.17
  1 A1    2 A1    3 A1    4 A1    5 A1    1 E     1 E     6 A1                 
 -0.862  -0.732  -0.445  -0.445  -0.317  -0.269  -0.269  -0.226
  7 A1    8 A1    2 E     2 E     9 A1    3 E     3 E     4 E                  
 -0.226  -0.200
  4 E    10 A1                                                                 
 -- Virtual --                   
  0.322   0.381   0.384   0.384   0.592   0.619   0.619   0.639
 11 A1   12 A1    5 E     5 E    13 A1    6 E     6 E     7 E                  
  0.639   0.837   0.907   0.951   0.951   1.160   1.201   1.308
  7 E    14 A1   15 A1    8 E     8 E    16 A1   17 A1    9 E                  
  1.308   1.389   1.389   1.466   1.466   1.487   1.607   1.679
  9 E    10 E    10 E    11 E    11 E    18 A1   19 A1   12 E                  
  1.679   1.818   1.876   1.876   1.929   2.224   2.265   2.265
 12 E     1 A2   13 E    13 E    20 A1   21 A1   14 E    14 E                  
  2.434   2.434   2.477   2.732   2.732   2.760   2.890   2.890
 15 E    15 E    22 A1   16 E    16 E    23 A1   17 E    17 E                  
  2.996   3.110   3.110   3.431   3.435   4.254   4.254   4.604
 24 A1   18 E    18 E    25 A1   26 A1   19 E    19 E    20 E                  
  4.604   4.623   4.623   4.776   7.068   7.068   7.178  10.421
 20 E    21 E    21 E    27 A1   22 E    22 E    28 A1   29 A1                 
 25.155  26.520  26.520  26.958  69.060 219.247
 30 A1   23 E    23 E    31 A1   32 A1   33 A1                                 
 --------------------------------------------------------------

          Ground-State Mulliken Net Atomic Charges

     Atom                 Charge (a.u.)
  ----------------------------------------
      1 F                    -0.686159
      2 C                    -0.092589
      3 H                     0.132577
      4 H                     0.132577
      5 H                     0.132577
      6 Cl                   -0.618983
  ----------------------------------------
  Sum of atomic charges =    -1.000000

 -----------------------------------------------------------------
                    Cartesian Multipole Moments
 -----------------------------------------------------------------
    Charge (ESU x 10^10)
                -4.8032
    Dipole Moment (Debye)
         X       0.0000      Y       0.0000      Z      -1.5498
       Tot       1.5498
    Quadrupole Moments (Debye-Ang)
        XX     -27.5913     XY      -0.0000     YY     -27.5913
        XZ       0.0000     YZ      -0.0000     ZZ     -56.3280
    Octopole Moments (Debye-Ang^2)
       XXX       0.9037    XXY       0.0000    XYY      -0.9037
       YYY       0.0000    XXZ       7.4551    XYZ       0.0000
       YYZ       7.4551    XZZ       0.0000    YZZ       0.0000
       ZZZ     -15.1755
    Hexadecapole Moments (Debye-Ang^3)
      XXXX     -38.6578   XXXY      -0.0000   XXYY     -12.8859
      XYYY      -0.0000   YYYY     -38.6578   XXXZ       0.4909
      XXYZ      -0.0000   XYYZ      -0.4909   YYYZ      -0.0000
      XXZZ     -87.6289   XYZZ      -0.0000   YYZZ     -87.6289
      XZZZ       0.0000   YZZZ      -0.0000   ZZZZ    -611.2256
 -----------------------------------------------------------------
 DrvMan is completing analytic gradient of the MP2 energy
 MP2 relaxed dipole moment
            1
    1   0.0000000
    2   0.0000000
    3  -0.6097363
	Magnitude:	 0.610 au	 1.550 Debye
 MP2 energy read as -599.169468
 Full Analytical Gradient of MP2 Energy (in au.)
             1             2             3             4             5
    1    0.00000000    0.00000000    0.00723905   -0.00361952   -0.00361952
    2    0.00000000   -0.00000000   -0.00000000   -0.00626920    0.00626920
    3    0.00547147   -0.03235989    0.00329381    0.00329381    0.00329381
             6
    1   -0.00000000
    2    0.00000000
    3    0.01700698
 Gradient time:  CPU 0.01 s  wall 0.01 s
 Geometry Optimization Parameters
   NAtoms,    NIC,     NZ,  NCons,   NDum,   NFix, NCnnct, MaxDiis
        6      63       0       1       0       0       0       0

 Cartesian Hessian Update
 Hessian Updated using BFGS Update


** CONSTRAINED OPTIMIZATION IN DELOCALIZED INTERNAL COORDINATES **
   Searching for a Minimum

   Optimization Cycle:   2

                       Coordinates (Angstroms)
     ATOM                X               Y               Z
      1  F         0.0000000000    0.0000000000    2.4369286540
      2  C         0.0000000000    0.0000000000    0.5313763483
      3  H         1.0783715089    0.0000000000    0.6223207790
      4  H        -0.5391857545   -0.9338971214    0.6223207790
      5  H        -0.5391857545    0.9338971214    0.6223207790
      6  Cl        0.0000000000    0.0000000000   -1.5885499868
   Point Group: c3v   Number of degrees of freedom:     4


   Energy is   -599.169468419

              Constraints and their Current Values
                                        Value     Constraint
   Distance(Angs):        1   2             1.905552     1.900000
 GETINT wrote B to file, NVib is            4
 Hessian Updated using BFGS Update

   Using Lagrange Multiplier Algorithm


  5 Hessian modes will be used to form the next step
  Hessian Eigenvalues:
    -0.993744    0.070468    0.192847    0.644044    1.016672

 Minimum Search - Taking P-RFO Step
 Searching for Lamda that Maximizes Along the Constraint modes Only
 Value Taken    Lamda =   0.00003259
 Searching for Lamda that Minimizes Along All other modes
 Value Taken    Lamda =  -0.00135332
 Step Taken.  Stepsize is  0.053047

                             Maximum     Tolerance    Cnvgd?
         Gradient           0.017575      0.000300      NO
         Displacement       0.048462      0.001200      NO
         Energy change     -0.002313      0.000001      NO


 New Cartesian Coordinates Obtained by Inverse Iteration

 Displacement from previous Coordinates is:  0.043744
 ----------------------------------------------------------------
             Standard Nuclear Orientation (Angstroms)
    I     Atom           X                Y                Z
 ----------------------------------------------------------------
    1      F       0.0000000000     0.0000000000     2.4379919652
    2      C       0.0000000000     0.0000000000     0.5379800103
    3      H       1.0783399841     0.0000000000     0.6267048068
    4      H      -0.5391699921    -0.9338698202     0.6267048068
    5      H      -0.5391699921     0.9338698202     0.6267048068
    6      Cl      0.0000000000     0.0000000000    -1.6093690435
 ----------------------------------------------------------------
 Molecular Point Group                 C3v   NOp =  6
 Largest Abelian Subgroup              Cs    NOp =  2
 Nuclear Repulsion Energy =    87.4826535311 hartrees
 There are       18 alpha and       18 beta electrons
 Applying Cartesian multipole field
    Component          Value
    ---------          -----
     (2,0,0)        1.00000E-10
     (0,2,0)        2.00000E-10
     (0,0,2)       -3.00000E-11
 Nucleus-field energy     =    -0.0000000089 hartrees
 Requested basis set is 6-311G(d,p)
 There are 34 shells and 80 basis functions
 A cutoff of  1.0D-11 yielded    559 shell pairs
 There are      3071 function pairs (      3299 Cartesian)
 Smallest overlap matrix eigenvalue = 1.10E-02
 Guess MOs from SCF MO coefficient file
Reading MOs from coefficient file
Reading MOs from coefficient file
 A restricted Hartree-Fock SCF calculation will be
 performed using Pulay DIIS extrapolation
 SCF converges when DIIS error is below 1.0E-08
Geometry optimization detected.  Setting ReadMinima to 0
Setting SaveMinima to 0
 ---------------------------------------
  Cycle       Energy         DIIS Error
 ---------------------------------------
    1    -598.5737694449      7.78E-04
    2    -598.5746942717      1.33E-04
    3    -598.5747139104      4.90E-05
    4    -598.5747174976      2.29E-05
    5    -598.5747185515      7.01E-06
    6    -598.5747186584      2.42E-06
    7    -598.5747186655      5.67E-07
    8    -598.5747186660      9.34E-08
    9    -598.5747186660      2.85E-08
   10    -598.5747186660      8.80E-09 Convergence criterion met
 ---------------------------------------
 SCF time:  CPU 1.51 s  wall 1.51 s
 SCF   energy in the final basis set = -598.5747186660
 Total energy in the final basis set = -598.5747186660

 Components of the MP2 correlation energy:
        aaaa  correlation energy =        -0.0713382255 au
        abab  correlation energy =        -0.4530089768 au
        bbbb  correlation energy =        -0.0713382255 au
        non-Brillouin singles    =        -0.0000000000 au

 Total  MP2   correlation energy =        -0.5956854279 au
        MP2         total energy =      -599.1704040938 au

  Entering Z-vector solver.
OV_DIM:  Setting MaxSz  = 1116
OV_DIM:  Setting MaxSpc = 1116
   1         0           1      0.000572    0.000572
   2         0           1      0.000180    0.000180
   3         0           1      0.000063    0.000063
   4         0           1      0.000017    0.000017
   5         0           1      0.000004    0.000004
   6         1           0      0.000000    0.000000    Roots Converged
 Analysis of SCF Wavefunction

 --------------------------------------------------------------
             Orbital Energies (a.u.) and Symmetries
 --------------------------------------------------------------

 Alpha MOs, Restricted
 -- Occupied --                  
-104.58  -25.90  -11.14  -10.31   -7.77   -7.77   -7.77   -1.18
  1 A1    2 A1    3 A1    4 A1    5 A1    1 E     1 E     6 A1                 
 -0.857  -0.735  -0.447  -0.447  -0.317  -0.273  -0.273  -0.225
  7 A1    8 A1    2 E     2 E     9 A1    3 E     3 E     4 E                  
 -0.225  -0.201
  4 E    10 A1                                                                 
 -- Virtual --                   
  0.320   0.378   0.383   0.383   0.593   0.617   0.617   0.640
 11 A1   12 A1    5 E     5 E    13 A1    6 E     6 E     7 E                  
  0.640   0.836   0.908   0.949   0.949   1.155   1.200   1.314
  7 E    14 A1   15 A1    8 E     8 E    16 A1   17 A1    9 E                  
  1.314   1.391   1.391   1.461   1.461   1.492   1.604   1.675
  9 E    10 E    10 E    11 E    11 E    18 A1   19 A1   12 E                  
  1.675   1.816   1.873   1.873   1.919   2.218   2.265   2.265
 12 E     1 A2   13 E    13 E    20 A1   21 A1   14 E    14 E                  
  2.430   2.430   2.473   2.733   2.733   2.756   2.888   2.888
 15 E    15 E    22 A1   16 E    16 E    23 A1   17 E    17 E                  
  2.994   3.108   3.108   3.414   3.431   4.251   4.251   4.599
 24 A1   18 E    18 E    25 A1   26 A1   19 E    19 E    20 E                  
  4.599   4.619   4.619   4.775   7.063   7.063   7.173  10.419
 20 E    21 E    21 E    27 A1   22 E    22 E    28 A1   29 A1                 
 25.153  26.519  26.519  26.938  69.055 219.244
 30 A1   23 E    23 E    31 A1   32 A1   33 A1                                 

 Beta MOs, Restricted
 -- Occupied --                  
-104.58  -25.90  -11.14  -10.31   -7.77   -7.77   -7.77   -1.18
  1 A1    2 A1    3 A1    4 A1    5 A1    1 E     1 E     6 A1                 
 -0.857  -0.735  -0.447  -0.447  -0.317  -0.273  -0.273  -0.225
  7 A1    8 A1    2 E     2 E     9 A1    3 E     3 E     4 E                  
 -0.225  -0.201
  4 E    10 A1                                                                 
 -- Virtual --                   
  0.320   0.378   0.383   0.383   0.593   0.617   0.617   0.640
 11 A1   12 A1    5 E     5 E    13 A1    6 E     6 E     7 E                  
  0.640   0.836   0.908   0.949   0.949   1.155   1.200   1.314
  7 E    14 A1   15 A1    8 E     8 E    16 A1   17 A1    9 E                  
  1.314   1.391   1.391   1.461   1.461   1.492   1.604   1.675
  9 E    10 E    10 E    11 E    11 E    18 A1   19 A1   12 E                  
  1.675   1.816   1.873   1.873   1.919   2.218   2.265   2.265
 12 E     1 A2   13 E    13 E    20 A1   21 A1   14 E    14 E                  
  2.430   2.430   2.473   2.733   2.733   2.756   2.888   2.888
 15 E    15 E    22 A1   16 E    16 E    23 A1   17 E    17 E                  
  2.994   3.108   3.108   3.414   3.431   4.251   4.251   4.599
 24 A1   18 E    18 E    25 A1   26 A1   19 E    19 E    20 E                  
  4.599   4.619   4.619   4.775   7.063   7.063   7.173  10.419
 20 E    21 E    21 E    27 A1   22 E    22 E    28 A1   29 A1                 
 25.153  26.519  26.519  26.938  69.055 219.244
 30 A1   23 E    23 E    31 A1   32 A1   33 A1                                 
 --------------------------------------------------------------

          Ground-State Mulliken Net Atomic Charges

     Atom                 Charge (a.u.)
  ----------------------------------------
      1 F                    -0.678609
      2 C                    -0.087950
      3 H                     0.133746
      4 H                     0.133746
      5 H                     0.133746
      6 Cl                   -0.634680
  ----------------------------------------
  Sum of atomic charges =    -1.000000

 -----------------------------------------------------------------
                    Cartesian Multipole Moments
 -----------------------------------------------------------------
    Charge (ESU x 10^10)
                -4.8032
    Dipole Moment (Debye)
         X       0.0000      Y      -0.0000      Z      -1.2570
       Tot       1.2570
    Quadrupole Moments (Debye-Ang)
        XX     -27.6206     XY       0.0000     YY     -27.6206
        XZ       0.0000     YZ      -0.0000     ZZ     -56.4505
    Octopole Moments (Debye-Ang^2)
       XXX       0.9115    XXY      -0.0000    XYY      -0.9115
       YYY      -0.0000    XXZ       7.8689    XYZ      -0.0000
       YYZ       7.8689    XZZ       0.0000    YZZ       0.0000
       ZZZ     -12.5602
    Hexadecapole Moments (Debye-Ang^3)
      XXXX     -38.7304   XXXY       0.0000   XXYY     -12.9101
      XYYY       0.0000   YYYY     -38.7304   XXXZ       0.5070
      XXYZ      -0.0000   XYYZ      -0.5070   YYYZ      -0.0000
      XXZZ     -88.7762   XYZZ       0.0000   YYZZ     -88.7762
      XZZZ       0.0000   YZZZ      -0.0000   ZZZZ    -618.3212
 -----------------------------------------------------------------
 DrvMan is completing analytic gradient of the MP2 energy
 MP2 relaxed dipole moment
            1
    1   0.0000000
    2  -0.0000000
    3  -0.4945614
	Magnitude:	 0.495 au	 1.257 Debye
 MP2 energy read as -599.170404
 Full Analytical Gradient of MP2 Energy (in au.)
             1             2             3             4             5
    1    0.00000000    0.00000000    0.00699596   -0.00349798   -0.00349798
    2    0.00000000    0.00000000   -0.00000000   -0.00605868    0.00605868
    3    0.00743927   -0.03585739    0.00461808    0.00461808    0.00461808
             6
    1   -0.00000000
    2   -0.00000000
    3    0.01456388
 Gradient time:  CPU 0.01 s  wall 0.01 s
 Geometry Optimization Parameters
   NAtoms,    NIC,     NZ,  NCons,   NDum,   NFix, NCnnct, MaxDiis
        6      63       0       1       0       0       0       0

 Cartesian Hessian Update
 Hessian Updated using BFGS Update


** CONSTRAINED OPTIMIZATION IN DELOCALIZED INTERNAL COORDINATES **
   Searching for a Minimum

   Optimization Cycle:   3

                       Coordinates (Angstroms)
     ATOM                X               Y               Z
      1  F         0.0000000000    0.0000000000    2.4379919652
      2  C         0.0000000000    0.0000000000    0.5379800103
      3  H         1.0783399841    0.0000000000    0.6267048068
      4  H        -0.5391699921   -0.9338698202    0.6267048068
      5  H        -0.5391699921    0.9338698202    0.6267048068
      6  Cl        0.0000000000    0.0000000000   -1.6093690435
   Point Group: c3v   Number of degrees of freedom:     4


   Energy is   -599.170404094

              Constraints and their Current Values
                                        Value     Constraint
   Distance(Angs):        1   2             1.900012     1.900000
 GETINT wrote B to file, NVib is            4
 Hessian Updated using BFGS Update

   Using Lagrange Multiplier Algorithm


  5 Hessian modes will be used to form the next step
  Hessian Eigenvalues:
    -0.950725    0.035260    0.121823    0.357900    1.061636

 Minimum Search - Taking P-RFO Step
 Searching for Lamda that Maximizes Along the Constraint modes Only
 Value Taken    Lamda =   0.00000034
 Searching for Lamda that Minimizes Along All other modes
 Value Taken    Lamda =  -0.00560737
 Calculated Step too Large.  Step scaled by  0.851349
 Step Taken.  Stepsize is  0.300000

                             Maximum     Tolerance    Cnvgd?
         Gradient           0.014001      0.000300      NO
         Displacement       0.213295      0.001200      NO
         Energy change     -0.000936      0.000001      NO


 New Cartesian Coordinates Obtained by Inverse Iteration

 Displacement from previous Coordinates is:  0.218368
 ----------------------------------------------------------------
             Standard Nuclear Orientation (Angstroms)
    I     Atom           X                Y                Z
 ----------------------------------------------------------------
    1      F       0.0000000000     0.0000000000     2.4748558975
    2      C       0.0000000000     0.0000000000     0.5748097816
    3      H       1.0718941999     0.0000000000     0.6359028240
    4      H      -0.5359471000    -0.9282876073     0.6359028240
    5      H      -0.5359471000     0.9282876073     0.6359028240
    6      Cl      0.0000000000     0.0000000000    -1.7106567986
 ----------------------------------------------------------------
 Molecular Point Group                 C3v   NOp =  6
 Largest Abelian Subgroup              Cs    NOp =  2
 Nuclear Repulsion Energy =    84.9012064239 hartrees
 There are       18 alpha and       18 beta electrons
 Applying Cartesian multipole field
    Component          Value
    ---------          -----
     (2,0,0)        1.00000E-10
     (0,2,0)        2.00000E-10
     (0,0,2)       -3.00000E-11
 Nucleus-field energy     =    -0.0000000097 hartrees
 Requested basis set is 6-311G(d,p)
 There are 34 shells and 80 basis functions
 A cutoff of  1.0D-11 yielded    556 shell pairs
 There are      3062 function pairs (      3289 Cartesian)
 Smallest overlap matrix eigenvalue = 1.12E-02
 Guess MOs from SCF MO coefficient file
Reading MOs from coefficient file
Reading MOs from coefficient file
 A restricted Hartree-Fock SCF calculation will be
 performed using Pulay DIIS extrapolation
 SCF converges when DIIS error is below 1.0E-08
Geometry optimization detected.  Setting ReadMinima to 0
Setting SaveMinima to 0
 ---------------------------------------
  Cycle       Energy         DIIS Error
 ---------------------------------------
    1    -598.5877625288      3.65E-03
    2    -598.5812082698      6.70E-04
    3    -598.5816855684      2.46E-04
    4    -598.5817658554      9.34E-05
    5    -598.5817864920      2.77E-05
    6    -598.5817882437      1.19E-05
    7    -598.5817884187      2.79E-06
    8    -598.5817884304      6.74E-07
    9    -598.5817884312      2.00E-07
   10    -598.5817884312      6.14E-08
   11    -598.5817884313      1.13E-08
   12    -598.5817884313      4.74E-09 Convergence criterion met
 ---------------------------------------
 SCF time:  CPU 1.82 s  wall 1.82 s
 SCF   energy in the final basis set = -598.5817884313
 Total energy in the final basis set = -598.5817884313

 Components of the MP2 correlation energy:
        aaaa  correlation energy =        -0.0705831279 au
        abab  correlation energy =        -0.4511118977 au
        bbbb  correlation energy =        -0.0705831279 au
        non-Brillouin singles    =        -0.0000000000 au

 Total  MP2   correlation energy =        -0.5922781535 au
        MP2         total energy =      -599.1740665847 au

  Entering Z-vector solver.
OV_DIM:  Setting MaxSz  = 1116
OV_DIM:  Setting MaxSpc = 1116
   1         0           1      0.000598    0.000598
   2         0           1      0.000195    0.000195
   3         0           1      0.000069    0.000069
   4         0           1      0.000018    0.000018
   5         0           1      0.000004    0.000004
   6         0           1      0.000001    0.000001
   7         1           0      0.000000    0.000000    Roots Converged
 Analysis of SCF Wavefunction

 --------------------------------------------------------------
             Orbital Energies (a.u.) and Symmetries
 --------------------------------------------------------------

 Alpha MOs, Restricted
 -- Occupied --                  
-104.57  -25.92  -11.15  -10.30   -7.76   -7.76   -7.76   -1.20
  1 A1    2 A1    3 A1    4 A1    5 A1    1 E     1 E     6 A1                 
 -0.839  -0.751  -0.460  -0.460  -0.317  -0.291  -0.291  -0.218
  7 A1    8 A1    2 E     2 E     9 A1    3 E     3 E     4 E                  
 -0.218  -0.204
  4 E    10 A1                                                                 
 -- Virtual --                   
  0.315   0.359   0.378   0.378   0.599   0.610   0.610   0.646
 11 A1   12 A1    5 E     5 E    13 A1    6 E     6 E     7 E                  
  0.646   0.828   0.908   0.943   0.943   1.124   1.194   1.333
  7 E    14 A1   15 A1    8 E     8 E    16 A1   17 A1    9 E                  
  1.333   1.402   1.402   1.440   1.440   1.525   1.595   1.655
  9 E    10 E    10 E    11 E    11 E    18 A1   19 A1   12 E                  
  1.655   1.808   1.858   1.858   1.865   2.178   2.269   2.269
 12 E     1 A2   13 E    13 E    20 A1   21 A1   14 E    14 E                  
  2.408   2.408   2.464   2.733   2.733   2.752   2.881   2.881
 15 E    15 E    22 A1   16 E    16 E    23 A1   17 E    17 E                  
  2.988   3.114   3.114   3.325   3.435   4.253   4.253   4.579
 24 A1   18 E    18 E    25 A1   26 A1   19 E    19 E    20 E                  
  4.579   4.601   4.601   4.756   7.040   7.040   7.149  10.410
 20 E    21 E    21 E    27 A1   22 E    22 E    28 A1   29 A1                 
 25.159  26.519  26.519  26.839  69.030 219.231
 30 A1   23 E    23 E    31 A1   32 A1   33 A1                                 

 Beta MOs, Restricted
 -- Occupied --                  
-104.57  -25.92  -11.15  -10.30   -7.76   -7.76   -7.76   -1.20
  1 A1    2 A1    3 A1    4 A1    5 A1    1 E     1 E     6 A1                 
 -0.839  -0.751  -0.460  -0.460  -0.317  -0.291  -0.291  -0.218
  7 A1    8 A1    2 E     2 E     9 A1    3 E     3 E     4 E                  
 -0.218  -0.204
  4 E    10 A1                                                                 
 -- Virtual --                   
  0.315   0.359   0.378   0.378   0.599   0.610   0.610   0.646
 11 A1   12 A1    5 E     5 E    13 A1    6 E     6 E     7 E                  
  0.646   0.828   0.908   0.943   0.943   1.124   1.194   1.333
  7 E    14 A1   15 A1    8 E     8 E    16 A1   17 A1    9 E                  
  1.333   1.402   1.402   1.440   1.440   1.525   1.595   1.655
  9 E    10 E    10 E    11 E    11 E    18 A1   19 A1   12 E                  
  1.655   1.808   1.858   1.858   1.865   2.178   2.269   2.269
 12 E     1 A2   13 E    13 E    20 A1   21 A1   14 E    14 E                  
  2.408   2.408   2.464   2.733   2.733   2.752   2.881   2.881
 15 E    15 E    22 A1   16 E    16 E    23 A1   17 E    17 E                  
  2.988   3.114   3.114   3.325   3.435   4.253   4.253   4.579
 24 A1   18 E    18 E    25 A1   26 A1   19 E    19 E    20 E                  
  4.579   4.601   4.601   4.756   7.040   7.040   7.149  10.410
 20 E    21 E    21 E    27 A1   22 E    22 E    28 A1   29 A1                 
 25.159  26.519  26.519  26.839  69.030 219.231
 30 A1   23 E    23 E    31 A1   32 A1   33 A1                                 
 --------------------------------------------------------------

          Ground-State Mulliken Net Atomic Charges

     Atom                 Charge (a.u.)
  ----------------------------------------
      1 F                    -0.646472
      2 C                    -0.065104
      3 H                     0.139099
      4 H                     0.139099
      5 H                     0.139099
      6 Cl                   -0.705722
  ----------------------------------------
  Sum of atomic charges =    -1.000000

 -----------------------------------------------------------------
                    Cartesian Multipole Moments
 -----------------------------------------------------------------
    Charge (ESU x 10^10)
                -4.8032
    Dipole Moment (Debye)
         X       0.0000      Y       0.0000      Z      -0.0533
       Tot       0.0533
    Quadrupole Moments (Debye-Ang)
        XX     -27.7182     XY      -0.0000     YY     -27.7182
        XZ       0.0000     YZ       0.0000     ZZ     -57.7670
    Octopole Moments (Debye-Ang^2)
       XXX       0.9388    XXY       0.0000    XYY      -0.9388
       YYY       0.0000    XXZ       9.6374    XYZ       0.0000
       YYZ       9.6374    XZZ       0.0000    YZZ      -0.0000
       ZZZ      -2.2252
    Hexadecapole Moments (Debye-Ang^3)
      XXXX     -38.8345   XXXY      -0.0000   XXYY     -12.9448
      XYYY      -0.0000   YYYY     -38.8345   XXXZ       0.5544
      XXYZ       0.0000   XYYZ      -0.5544   YYYZ       0.0000
      XXZZ     -95.5192   XYZZ      -0.0000   YYZZ     -95.5192
      XZZZ       0.0000   YZZZ       0.0000   ZZZZ    -666.9096
 -----------------------------------------------------------------
 DrvMan is completing analytic gradient of the MP2 energy
 MP2 relaxed dipole moment
            1
    1   0.0000000
    2   0.0000000
    3  -0.0209515
	Magnitude:	 0.021 au	 0.053 Debye
 MP2 energy read as -599.174067
 Full Analytical Gradient of MP2 Energy (in au.)
             1             2             3             4             5
    1    0.00000000    0.00000000    0.00087235   -0.00043618   -0.00043618
    2   -0.00000000    0.00000000   -0.00000000   -0.00075548    0.00075548
    3    0.02114481   -0.04973267    0.00759547    0.00759547    0.00759547
             6
    1   -0.00000000
    2    0.00000000
    3    0.00580143
 Gradient time:  CPU 0.01 s  wall 0.01 s
 Geometry Optimization Parameters
   NAtoms,    NIC,     NZ,  NCons,   NDum,   NFix, NCnnct, MaxDiis
        6      63       0       1       0       0       0       0

 Cartesian Hessian Update
 Hessian Updated using BFGS Update


** CONSTRAINED OPTIMIZATION IN DELOCALIZED INTERNAL COORDINATES **
   Searching for a Minimum

   Optimization Cycle:   4

                       Coordinates (Angstroms)
     ATOM                X               Y               Z
      1  F         0.0000000000    0.0000000000    2.4748558975
      2  C         0.0000000000    0.0000000000    0.5748097816
      3  H         1.0718941999    0.0000000000    0.6359028240
      4  H        -0.5359471000   -0.9282876073    0.6359028240
      5  H        -0.5359471000    0.9282876073    0.6359028240
      6  Cl        0.0000000000    0.0000000000   -1.7106567986
   Point Group: c3v   Number of degrees of freedom:     4


   Energy is   -599.174066585

              Constraints and their Current Values
                                        Value     Constraint
   Distance(Angs):        1   2             1.900046     1.900000
 GETINT wrote B to file, NVib is            4
 Hessian Updated using BFGS Update

   Using Lagrange Multiplier Algorithm


  5 Hessian modes will be used to form the next step
  Hessian Eigenvalues:
    -0.916186    0.016133    0.149497    0.361391    1.114837

 Minimum Search - Taking P-RFO Step
 Searching for Lamda that Maximizes Along the Constraint modes Only
 Value Taken    Lamda =   0.00000012
 Searching for Lamda that Minimizes Along All other modes
 Value Taken    Lamda =  -0.00440848
 Calculated Step too Large.  Step scaled by  0.651651
 Step Taken.  Stepsize is  0.300000

                             Maximum     Tolerance    Cnvgd?
         Gradient           0.008673      0.000300      NO
         Displacement       0.241362      0.001200      NO
         Energy change     -0.003662      0.000001      NO


 New Cartesian Coordinates Obtained by Inverse Iteration

 Displacement from previous Coordinates is:  0.183995
 ----------------------------------------------------------------
             Standard Nuclear Orientation (Angstroms)
    I     Atom           X                Y                Z
 ----------------------------------------------------------------
    1      F       0.0000000000     0.0000000000     2.5127698673
    2      C       0.0000000000     0.0000000000     0.6127347687
    3      H       1.0697653118     0.0000000000     0.6376651957
    4      H      -0.5348826559    -0.9264439361     0.6376651957
    5      H      -0.5348826559     0.9264439361     0.6376651957
    6      Cl      0.0000000000     0.0000000000    -1.7917828706
 ----------------------------------------------------------------
 Molecular Point Group                 C3v   NOp =  6
 Largest Abelian Subgroup              Cs    NOp =  2
 Nuclear Repulsion Energy =    82.8397088905 hartrees
 There are       18 alpha and       18 beta electrons
 Applying Cartesian multipole field
    Component          Value
    ---------          -----
     (2,0,0)        1.00000E-10
     (0,2,0)        2.00000E-10
     (0,0,2)       -3.00000E-11
 Nucleus-field energy     =    -0.0000000105 hartrees
 Requested basis set is 6-311G(d,p)
 There are 34 shells and 80 basis functions
 A cutoff of  1.0D-11 yielded    548 shell pairs
 There are      3048 function pairs (      3275 Cartesian)
 Smallest overlap matrix eigenvalue = 1.17E-02
 Guess MOs from SCF MO coefficient file
Reading MOs from coefficient file
Reading MOs from coefficient file
 A restricted Hartree-Fock SCF calculation will be
 performed using Pulay DIIS extrapolation
 SCF converges when DIIS error is below 1.0E-08
Geometry optimization detected.  Setting ReadMinima to 0
Setting SaveMinima to 0
 ---------------------------------------
  Cycle       Energy         DIIS Error
 ---------------------------------------
    1    -598.5883762943      2.55E-03
    2    -598.5863592331      4.89E-04
    3    -598.5866161141      1.82E-04
    4    -598.5866602272      7.63E-05
    5    -598.5866720355      2.48E-05
    6    -598.5866732396      9.87E-06
    7    -598.5866733714      1.95E-06
    8    -598.5866733790      5.36E-07
    9    -598.5866733796      1.65E-07
   10    -598.5866733796      4.45E-08
   11    -598.5866733796      7.93E-09 Convergence criterion met
 ---------------------------------------
 SCF time:  CPU 1.72 s  wall 1.72 s
 SCF   energy in the final basis set = -598.5866733796
 Total energy in the final basis set = -598.5866733796

 Components of the MP2 correlation energy:
        aaaa  correlation energy =        -0.0700158705 au
        abab  correlation energy =        -0.4499136540 au
        bbbb  correlation energy =        -0.0700158705 au
        non-Brillouin singles    =        -0.0000000000 au

 Total  MP2   correlation energy =        -0.5899453950 au
        MP2         total energy =      -599.1766187746 au

  Entering Z-vector solver.
OV_DIM:  Setting MaxSz  = 1116
OV_DIM:  Setting MaxSpc = 1116
   1         0           1      0.000607    0.000607
   2         0           1      0.000204    0.000204
   3         0           1      0.000071    0.000071
   4         0           1      0.000019    0.000019
   5         0           1      0.000004    0.000004
   6         0           1      0.000002    0.000002
   7         1           0      0.000000    0.000000    Roots Converged
 Analysis of SCF Wavefunction

 --------------------------------------------------------------
             Orbital Energies (a.u.) and Symmetries
 --------------------------------------------------------------

 Alpha MOs, Restricted
 -- Occupied --                  
-104.56  -25.94  -11.16  -10.29   -7.76   -7.75   -7.75   -1.21
  1 A1    2 A1    3 A1    4 A1    5 A1    1 E     1 E     6 A1                 
 -0.828  -0.762  -0.470  -0.470  -0.321  -0.307  -0.307  -0.211
  7 A1    8 A1    2 E     2 E     9 A1    3 E     3 E     4 E                  
 -0.211  -0.204
  4 E    10 A1                                                                 
 -- Virtual --                   
  0.310   0.344   0.373   0.373   0.604   0.604   0.608   0.651
 11 A1   12 A1    5 E     5 E     6 E     6 E    13 A1    7 E                  
  0.651   0.818   0.899   0.937   0.937   1.100   1.189   1.342
  7 E    14 A1   15 A1    8 E     8 E    16 A1   17 A1    9 E                  
  1.342   1.410   1.410   1.429   1.429   1.546   1.592   1.638
  9 E    10 E    10 E    11 E    11 E    18 A1   19 A1   12 E                  
  1.638   1.800   1.831   1.842   1.842   2.145   2.276   2.276
 12 E     1 A2   20 A1   13 E    13 E    21 A1   14 E    14 E                  
  2.386   2.386   2.453   2.736   2.736   2.762   2.873   2.873
 15 E    15 E    22 A1   16 E    16 E    23 A1   17 E    17 E                  
  2.969   3.114   3.114   3.269   3.439   4.251   4.251   4.563
 24 A1   18 E    18 E    25 A1   26 A1   19 E    19 E    20 E                  
  4.563   4.586   4.586   4.739   7.022   7.022   7.130  10.404
 20 E    21 E    21 E    27 A1   22 E    22 E    28 A1   29 A1                 
 25.157  26.521  26.521  26.778  69.008 219.221
 30 A1   23 E    23 E    31 A1   32 A1   33 A1                                 

 Beta MOs, Restricted
 -- Occupied --                  
-104.56  -25.94  -11.16  -10.29   -7.76   -7.75   -7.75   -1.21
  1 A1    2 A1    3 A1    4 A1    5 A1    1 E     1 E     6 A1                 
 -0.828  -0.762  -0.470  -0.470  -0.321  -0.307  -0.307  -0.211
  7 A1    8 A1    2 E     2 E     9 A1    3 E     3 E     4 E                  
 -0.211  -0.204
  4 E    10 A1                                                                 
 -- Virtual --                   
  0.310   0.344   0.373   0.373   0.604   0.604   0.608   0.651
 11 A1   12 A1    5 E     5 E     6 E     6 E    13 A1    7 E                  
  0.651   0.818   0.899   0.937   0.937   1.100   1.189   1.342
  7 E    14 A1   15 A1    8 E     8 E    16 A1   17 A1    9 E                  
  1.342   1.410   1.410   1.429   1.429   1.546   1.592   1.638
  9 E    10 E    10 E    11 E    11 E    18 A1   19 A1   12 E                  
  1.638   1.800   1.831   1.842   1.842   2.145   2.276   2.276
 12 E     1 A2   20 A1   13 E    13 E    21 A1   14 E    14 E                  
  2.386   2.386   2.453   2.736   2.736   2.762   2.873   2.873
 15 E    15 E    22 A1   16 E    16 E    23 A1   17 E    17 E                  
  2.969   3.114   3.114   3.269   3.439   4.251   4.251   4.563
 24 A1   18 E    18 E    25 A1   26 A1   19 E    19 E    20 E                  
  4.563   4.586   4.586   4.739   7.022   7.022   7.130  10.404
 20 E    21 E    21 E    27 A1   22 E    22 E    28 A1   29 A1                 
 25.157  26.521  26.521  26.778  69.008 219.221
 30 A1   23 E    23 E    31 A1   32 A1   33 A1                                 
 --------------------------------------------------------------

          Ground-State Mulliken Net Atomic Charges

     Atom                 Charge (a.u.)
  ----------------------------------------
      1 F                    -0.619206
      2 C                    -0.043560
      3 H                     0.141566
      4 H                     0.141566
      5 H                     0.141566
      6 Cl                   -0.761931
  ----------------------------------------
  Sum of atomic charges =    -1.000000

 -----------------------------------------------------------------
                    Cartesian Multipole Moments
 -----------------------------------------------------------------
    Charge (ESU x 10^10)
                -4.8032
    Dipole Moment (Debye)
         X       0.0000      Y       0.0000      Z       0.9366
       Tot       0.9366
    Quadrupole Moments (Debye-Ang)
        XX     -27.7976     XY       0.0000     YY     -27.7976
        XZ       0.0000     YZ      -0.0000     ZZ     -59.0858
    Octopole Moments (Debye-Ang^2)
       XXX       0.9628    XXY      -0.0000    XYY      -0.9628
       YYY      -0.0000    XXZ      10.9763    XYZ      -0.0000
       YYZ      10.9763    XZZ       0.0000    YZZ       0.0000
       ZZZ       6.4376
    Hexadecapole Moments (Debye-Ang^3)
      XXXX     -38.9980   XXXY       0.0000   XXYY     -12.9993
      XYYY       0.0000   YYYY     -38.9980   XXXZ       0.5789
      XXYZ      -0.0000   XYYZ      -0.5789   YYYZ      -0.0000
      XXZZ    -101.6023   XYZZ       0.0000   YYZZ    -101.6023
      XZZZ       0.0000   YZZZ      -0.0000   ZZZZ    -712.3736
 -----------------------------------------------------------------
 DrvMan is completing analytic gradient of the MP2 energy
 MP2 relaxed dipole moment
            1
    1   0.0000000
    2   0.0000000
    3   0.3684711
	Magnitude:	 0.368 au	 0.937 Debye
 MP2 energy read as -599.176619
 Full Analytical Gradient of MP2 Energy (in au.)
             1             2             3             4             5
    1    0.00000000    0.00000000   -0.00181162    0.00090581    0.00090581
    2    0.00000000   -0.00000000    0.00000000    0.00156891   -0.00156891
    3    0.03322348   -0.06135157    0.00860677    0.00860677    0.00860677
             6
    1   -0.00000000
    2    0.00000000
    3    0.00230778
 Gradient time:  CPU 0.01 s  wall 0.01 s
 Geometry Optimization Parameters
   NAtoms,    NIC,     NZ,  NCons,   NDum,   NFix, NCnnct, MaxDiis
        6      63       0       1       0       0       0       0

 Cartesian Hessian Update
 Hessian Updated using BFGS Update


** CONSTRAINED OPTIMIZATION IN DELOCALIZED INTERNAL COORDINATES **
   Searching for a Minimum

   Optimization Cycle:   5

                       Coordinates (Angstroms)
     ATOM                X               Y               Z
      1  F         0.0000000000    0.0000000000    2.5127698673
      2  C         0.0000000000    0.0000000000    0.6127347687
      3  H         1.0697653118    0.0000000000    0.6376651957
      4  H        -0.5348826559   -0.9264439361    0.6376651957
      5  H        -0.5348826559    0.9264439361    0.6376651957
      6  Cl        0.0000000000    0.0000000000   -1.7917828706
   Point Group: c3v   Number of degrees of freedom:     4


   Energy is   -599.176618775

              Constraints and their Current Values
                                        Value     Constraint
   Distance(Angs):        1   2             1.900035     1.900000
 GETINT wrote B to file, NVib is            4
 Hessian Updated using BFGS Update

   Using Lagrange Multiplier Algorithm


  5 Hessian modes will be used to form the next step
  Hessian Eigenvalues:
    -0.823228    0.005777    0.160439    0.379591    1.285229

 Minimum Search - Taking P-RFO Step
 Searching for Lamda that Maximizes Along the Constraint modes Only
 Value Taken    Lamda =   0.00000000
 Searching for Lamda that Minimizes Along All other modes
 Value Taken    Lamda =  -0.00555359
 Calculated Step too Large.  Step scaled by  0.433138
 Step Taken.  Stepsize is  0.300000

                             Maximum     Tolerance    Cnvgd?
         Gradient           0.009110      0.000300      NO
         Displacement       0.258369      0.001200      NO
         Energy change     -0.002552      0.000001      NO


 New Cartesian Coordinates Obtained by Inverse Iteration

 Displacement from previous Coordinates is:  0.166949
 ----------------------------------------------------------------
             Standard Nuclear Orientation (Angstroms)
    I     Atom           X                Y                Z
 ----------------------------------------------------------------
    1      F       0.0000000000     0.0000000000     2.5506498394
    2      C       0.0000000000     0.0000000000     0.6506112565
    3      H       1.0691738617     0.0000000000     0.6358033813
    4      H      -0.5345869308    -0.9259317253     0.6358033813
    5      H      -0.5345869308     0.9259317253     0.6358033813
    6      Cl      0.0000000000     0.0000000000    -1.8619538872
 ----------------------------------------------------------------
 Molecular Point Group                 C3v   NOp =  6
 Largest Abelian Subgroup              Cs    NOp =  2
 Nuclear Repulsion Energy =    81.0835989381 hartrees
 There are       18 alpha and       18 beta electrons
 Applying Cartesian multipole field
    Component          Value
    ---------          -----
     (2,0,0)        1.00000E-10
     (0,2,0)        2.00000E-10
     (0,0,2)       -3.00000E-11
 Nucleus-field energy     =    -0.0000000112 hartrees
 Requested basis set is 6-311G(d,p)
 There are 34 shells and 80 basis functions
 A cutoff of  1.0D-11 yielded    547 shell pairs
 There are      3044 function pairs (      3271 Cartesian)
 Smallest overlap matrix eigenvalue = 1.23E-02
 Guess MOs from SCF MO coefficient file
Reading MOs from coefficient file
Reading MOs from coefficient file
 A restricted Hartree-Fock SCF calculation will be
 performed using Pulay DIIS extrapolation
 SCF converges when DIIS error is below 1.0E-08
Geometry optimization detected.  Setting ReadMinima to 0
Setting SaveMinima to 0
 ---------------------------------------
  Cycle       Energy         DIIS Error
 ---------------------------------------
    1    -598.5894708979      1.94E-03
    2    -598.5902241037      3.81E-04
    3    -598.5903790328      1.49E-04
    4    -598.5904065564      6.67E-05
    5    -598.5904141883      2.11E-05
    6    -598.5904150974      7.82E-06
    7    -598.5904151888      1.56E-06
    8    -598.5904151940      4.41E-07
    9    -598.5904151944      1.31E-07
   10    -598.5904151944      3.28E-08
   11    -598.5904151944      5.97E-09 Convergence criterion met
 ---------------------------------------
 SCF time:  CPU 1.69 s  wall 1.69 s
 SCF   energy in the final basis set = -598.5904151944
 Total energy in the final basis set = -598.5904151944

 Components of the MP2 correlation energy:
        aaaa  correlation energy =        -0.0695940583 au
        abab  correlation energy =        -0.4492236325 au
        bbbb  correlation energy =        -0.0695940583 au
        non-Brillouin singles    =        -0.0000000000 au

 Total  MP2   correlation energy =        -0.5884117491 au
        MP2         total energy =      -599.1788269436 au

  Entering Z-vector solver.
OV_DIM:  Setting MaxSz  = 1116
OV_DIM:  Setting MaxSpc = 1116
   1         0           1      0.000608    0.000608
   2         0           1      0.000210    0.000210
   3         0           1      0.000072    0.000072
   4         0           1      0.000019    0.000019
   5         0           1      0.000004    0.000004
   6         0           1      0.000002    0.000002
   7         1           0      0.000000    0.000000    Roots Converged
 Analysis of SCF Wavefunction

 --------------------------------------------------------------
             Orbital Energies (a.u.) and Symmetries
 --------------------------------------------------------------

 Alpha MOs, Restricted
 -- Occupied --                  
-104.56  -25.96  -11.17  -10.28   -7.75   -7.75   -7.75   -1.22
  1 A1    2 A1    3 A1    4 A1    5 A1    1 E     1 E     6 A1                 
 -0.822  -0.768  -0.477  -0.477  -0.327  -0.321  -0.321  -0.205
  7 A1    8 A1    2 E     2 E     9 A1    3 E     3 E     4 E                  
 -0.205  -0.202
  4 E    10 A1                                                                 
 -- Virtual --                   
  0.306   0.332   0.369   0.369   0.599   0.599   0.618   0.654
 11 A1   12 A1    5 E     5 E     6 E     6 E    13 A1    7 E                  
  0.654   0.807   0.884   0.931   0.931   1.083   1.185   1.345
  7 E    14 A1   15 A1    8 E     8 E    16 A1   17 A1    9 E                  
  1.345   1.416   1.416   1.425   1.425   1.549   1.588   1.625
  9 E    10 E    10 E    11 E    11 E    18 A1   19 A1   12 E                  
  1.625   1.793   1.814   1.828   1.828   2.122   2.273   2.273
 12 E     1 A2   20 A1   13 E    13 E    21 A1   14 E    14 E                  
  2.378   2.378   2.440   2.739   2.739   2.772   2.865   2.865
 15 E    15 E    22 A1   16 E    16 E    23 A1   17 E    17 E                  
  2.941   3.108   3.108   3.236   3.439   4.245   4.245   4.549
 24 A1   18 E    18 E    25 A1   26 A1   19 E    19 E    20 E                  
  4.549   4.574   4.574   4.724   7.006   7.006   7.113  10.398
 20 E    21 E    21 E    27 A1   22 E    22 E    28 A1   29 A1                 
 25.150  26.524  26.524  26.744  68.990 219.213
 30 A1   23 E    23 E    31 A1   32 A1   33 A1                                 

 Beta MOs, Restricted
 -- Occupied --                  
-104.56  -25.96  -11.17  -10.28   -7.75   -7.75   -7.75   -1.22
  1 A1    2 A1    3 A1    4 A1    5 A1    1 E     1 E     6 A1                 
 -0.822  -0.768  -0.477  -0.477  -0.327  -0.321  -0.321  -0.205
  7 A1    8 A1    2 E     2 E     9 A1    3 E     3 E     4 E                  
 -0.205  -0.202
  4 E    10 A1                                                                 
 -- Virtual --                   
  0.306   0.332   0.369   0.369   0.599   0.599   0.618   0.654
 11 A1   12 A1    5 E     5 E     6 E     6 E    13 A1    7 E                  
  0.654   0.807   0.884   0.931   0.931   1.083   1.185   1.345
  7 E    14 A1   15 A1    8 E     8 E    16 A1   17 A1    9 E                  
  1.345   1.416   1.416   1.425   1.425   1.549   1.588   1.625
  9 E    10 E    10 E    11 E    11 E    18 A1   19 A1   12 E                  
  1.625   1.793   1.814   1.828   1.828   2.122   2.273   2.273
 12 E     1 A2   20 A1   13 E    13 E    21 A1   14 E    14 E                  
  2.378   2.378   2.440   2.739   2.739   2.772   2.865   2.865
 15 E    15 E    22 A1   16 E    16 E    23 A1   17 E    17 E                  
  2.941   3.108   3.108   3.236   3.439   4.245   4.245   4.549
 24 A1   18 E    18 E    25 A1   26 A1   19 E    19 E    20 E                  
  4.549   4.574   4.574   4.724   7.006   7.006   7.113  10.398
 20 E    21 E    21 E    27 A1   22 E    22 E    28 A1   29 A1                 
 25.150  26.524  26.524  26.744  68.990 219.213
 30 A1   23 E    23 E    31 A1   32 A1   33 A1                                 
 --------------------------------------------------------------

          Ground-State Mulliken Net Atomic Charges

     Atom                 Charge (a.u.)
  ----------------------------------------
      1 F                    -0.595324
      2 C                    -0.025843
      3 H                     0.142619
      4 H                     0.142619
      5 H                     0.142619
      6 Cl                   -0.806689
  ----------------------------------------
  Sum of atomic charges =    -1.000000

 -----------------------------------------------------------------
                    Cartesian Multipole Moments
 -----------------------------------------------------------------
    Charge (ESU x 10^10)
                -4.8032
    Dipole Moment (Debye)
         X       0.0000      Y      -0.0000      Z       1.7719
       Tot       1.7719
    Quadrupole Moments (Debye-Ang)
        XX     -27.8687     XY       0.0000     YY     -27.8687
        XZ       0.0000     YZ       0.0000     ZZ     -60.3633
    Octopole Moments (Debye-Ang^2)
       XXX       0.9806    XXY      -0.0000    XYY      -0.9806
       YYY      -0.0000    XXZ      12.0555    XYZ      -0.0000
       YYZ      12.0555    XZZ       0.0000    YZZ      -0.0000
       ZZZ      14.0551
    Hexadecapole Moments (Debye-Ang^3)
      XXXX     -39.1867   XXXY       0.0000   XXYY     -13.0622
      XYYY       0.0000   YYYY     -39.1867   XXXZ       0.5887
      XXYZ       0.0000   XYYZ      -0.5887   YYYZ       0.0000
      XXZZ    -107.2980   XYZZ       0.0000   YYZZ    -107.2980
      XZZZ       0.0000   YZZZ       0.0000   ZZZZ    -755.9812
 -----------------------------------------------------------------
 DrvMan is completing analytic gradient of the MP2 energy
 MP2 relaxed dipole moment
            1
    1   0.0000000
    2  -0.0000000
    3   0.6971094
	Magnitude:	 0.697 au	 1.772 Debye
 MP2 energy read as -599.178827
 Full Analytical Gradient of MP2 Energy (in au.)
             1             2             3             4             5
    1    0.00000000    0.00000000   -0.00249546    0.00124773    0.00124773
    2   -0.00000000   -0.00000000    0.00000000    0.00216114   -0.00216114
    3    0.04372595   -0.06958032    0.00844162    0.00844162    0.00844162
             6
    1   -0.00000000
    2   -0.00000000
    3    0.00052950
 Gradient time:  CPU 0.01 s  wall 0.01 s
 Geometry Optimization Parameters
   NAtoms,    NIC,     NZ,  NCons,   NDum,   NFix, NCnnct, MaxDiis
        6      63       0       1       0       0       0       0

 Cartesian Hessian Update
 Hessian Updated using BFGS Update


** CONSTRAINED OPTIMIZATION IN DELOCALIZED INTERNAL COORDINATES **
   Searching for a Minimum

   Optimization Cycle:   6

                       Coordinates (Angstroms)
     ATOM                X               Y               Z
      1  F         0.0000000000    0.0000000000    2.5506498394
      2  C         0.0000000000    0.0000000000    0.6506112565
      3  H         1.0691738617    0.0000000000    0.6358033813
      4  H        -0.5345869308   -0.9259317253    0.6358033813
      5  H        -0.5345869308    0.9259317253    0.6358033813
      6  Cl        0.0000000000    0.0000000000   -1.8619538872
   Point Group: c3v   Number of degrees of freedom:     4


   Energy is   -599.178826944

              Constraints and their Current Values
                                        Value     Constraint
   Distance(Angs):        1   2             1.900039     1.900000
 GETINT wrote B to file, NVib is            4
 Hessian Updated using BFGS Update

   Using Lagrange Multiplier Algorithm


  5 Hessian modes will be used to form the next step
  Hessian Eigenvalues:
    -0.757060    0.004361    0.154027    0.380998    1.438835

 Minimum Search - Taking P-RFO Step
 Searching for Lamda that Maximizes Along the Constraint modes Only
 Value Taken    Lamda =   0.00001079
 Searching for Lamda that Minimizes Along All other modes
 Value Taken    Lamda =  -0.00509315
 Calculated Step too Large.  Step scaled by  0.415953
 Step Taken.  Stepsize is  0.300000

                             Maximum     Tolerance    Cnvgd?
         Gradient           0.008591      0.000300      NO
         Displacement       0.267998      0.001200      NO
         Energy change     -0.002208      0.000001      NO


 New Cartesian Coordinates Obtained by Inverse Iteration

 Displacement from previous Coordinates is:  0.155878
 ----------------------------------------------------------------
             Standard Nuclear Orientation (Angstroms)
    I     Atom           X                Y                Z
 ----------------------------------------------------------------
    1      F       0.0000000000     0.0000000000     2.5885005634
    2      C       0.0000000000     0.0000000000     0.6884661512
    3      H       1.0684491164     0.0000000000     0.6313222751
    4      H      -0.5342245582    -0.9253040775     0.6313222751
    5      H      -0.5342245582     0.9253040775     0.6313222751
    6      Cl      0.0000000000     0.0000000000    -1.9242161875
 ----------------------------------------------------------------
 Molecular Point Group                 C3v   NOp =  6
 Largest Abelian Subgroup              Cs    NOp =  2
 Nuclear Repulsion Energy =    79.5510608137 hartrees
 There are       18 alpha and       18 beta electrons
 Applying Cartesian multipole field
    Component          Value
    ---------          -----
     (2,0,0)        1.00000E-10
     (0,2,0)        2.00000E-10
     (0,0,2)       -3.00000E-11
 Nucleus-field energy     =    -0.0000000118 hartrees
 Requested basis set is 6-311G(d,p)
 There are 34 shells and 80 basis functions
 A cutoff of  1.0D-11 yielded    539 shell pairs
 There are      3018 function pairs (      3245 Cartesian)
 Smallest overlap matrix eigenvalue = 1.29E-02
 Guess MOs from SCF MO coefficient file
Reading MOs from coefficient file
Reading MOs from coefficient file
 A restricted Hartree-Fock SCF calculation will be
 performed using Pulay DIIS extrapolation
 SCF converges when DIIS error is below 1.0E-08
Geometry optimization detected.  Setting ReadMinima to 0
Setting SaveMinima to 0
 ---------------------------------------
  Cycle       Energy         DIIS Error
 ---------------------------------------
    1    -598.5906598217      1.54E-03
    2    -598.5930700749      3.17E-04
    3    -598.5931717796      1.34E-04
    4    -598.5931910531      5.99E-05
    5    -598.5931965462      1.74E-05
    6    -598.5931972032      6.50E-06
    7    -598.5931972696      1.30E-06
    8    -598.5931972732      3.63E-07
    9    -598.5931972735      1.02E-07
   10    -598.5931972736      2.48E-08
   11    -598.5931972736      4.64E-09 Convergence criterion met
 ---------------------------------------
 SCF time:  CPU 1.66 s  wall 1.67 s
 SCF   energy in the final basis set = -598.5931972736
 Total energy in the final basis set = -598.5931972736

 Components of the MP2 correlation energy:
        aaaa  correlation energy =        -0.0692944992 au
        abab  correlation energy =        -0.4489278017 au
        bbbb  correlation energy =        -0.0692944992 au
        non-Brillouin singles    =        -0.0000000000 au

 Total  MP2   correlation energy =        -0.5875168002 au
        MP2         total energy =      -599.1807140738 au

  Entering Z-vector solver.
OV_DIM:  Setting MaxSz  = 1116
OV_DIM:  Setting MaxSpc = 1116
   1         0           1      0.000604    0.000604
   2         0           1      0.000213    0.000213
   3         0           1      0.000073    0.000073
   4         0           1      0.000019    0.000019
   5         0           1      0.000004    0.000004
   6         0           1      0.000002    0.000002
   7         1           0      0.000000    0.000000    Roots Converged
 Analysis of SCF Wavefunction

 --------------------------------------------------------------
             Orbital Energies (a.u.) and Symmetries
 --------------------------------------------------------------

 Alpha MOs, Restricted
 -- Occupied --                  
-104.55  -25.97  -11.18  -10.28   -7.74   -7.74   -7.74   -1.23
  1 A1    2 A1    3 A1    4 A1    5 A1    1 E     1 E     6 A1                 
 -0.818  -0.771  -0.482  -0.482  -0.334  -0.333  -0.333  -0.200
  7 A1    8 A1    2 E     2 E     9 A1    3 E     3 E     4 E                  
 -0.200  -0.199
  4 E    10 A1                                                                 
 -- Virtual --                   
  0.303   0.322   0.365   0.365   0.595   0.595   0.628   0.656
 11 A1   12 A1    5 E     5 E     6 E     6 E    13 A1    7 E                  
  0.656   0.797   0.868   0.926   0.926   1.070   1.184   1.344
  7 E    14 A1   15 A1    8 E     8 E    16 A1   17 A1    9 E                  
  1.344   1.421   1.421   1.425   1.425   1.546   1.575   1.612
  9 E    10 E    10 E    11 E    11 E    18 A1   19 A1   12 E                  
  1.612   1.788   1.806   1.819   1.819   2.108   2.252   2.252
 12 E     1 A2   20 A1   13 E    13 E    21 A1   14 E    14 E                  
  2.389   2.389   2.427   2.743   2.743   2.779   2.859   2.859
 15 E    15 E    22 A1   16 E    16 E    23 A1   17 E    17 E                  
  2.912   3.097   3.097   3.218   3.435   4.236   4.236   4.537
 24 A1   18 E    18 E    25 A1   26 A1   19 E    19 E    20 E                  
  4.537   4.563   4.563   4.710   6.993   6.993   7.099  10.393
 20 E    21 E    21 E    27 A1   22 E    22 E    28 A1   29 A1                 
 25.141  26.527  26.527  26.725  68.973 219.205
 30 A1   23 E    23 E    31 A1   32 A1   33 A1                                 

 Beta MOs, Restricted
 -- Occupied --                  
-104.55  -25.97  -11.18  -10.28   -7.74   -7.74   -7.74   -1.23
  1 A1    2 A1    3 A1    4 A1    5 A1    1 E     1 E     6 A1                 
 -0.818  -0.771  -0.482  -0.482  -0.334  -0.333  -0.333  -0.200
  7 A1    8 A1    2 E     2 E     9 A1    3 E     3 E     4 E                  
 -0.200  -0.199
  4 E    10 A1                                                                 
 -- Virtual --                   
  0.303   0.322   0.365   0.365   0.595   0.595   0.628   0.656
 11 A1   12 A1    5 E     5 E     6 E     6 E    13 A1    7 E                  
  0.656   0.797   0.868   0.926   0.926   1.070   1.184   1.344
  7 E    14 A1   15 A1    8 E     8 E    16 A1   17 A1    9 E                  
  1.344   1.421   1.421   1.425   1.425   1.546   1.575   1.612
  9 E    10 E    10 E    11 E    11 E    18 A1   19 A1   12 E                  
  1.612   1.788   1.806   1.819   1.819   2.108   2.252   2.252
 12 E     1 A2   20 A1   13 E    13 E    21 A1   14 E    14 E                  
  2.389   2.389   2.427   2.743   2.743   2.779   2.859   2.859
 15 E    15 E    22 A1   16 E    16 E    23 A1   17 E    17 E                  
  2.912   3.097   3.097   3.218   3.435   4.236   4.236   4.537
 24 A1   18 E    18 E    25 A1   26 A1   19 E    19 E    20 E                  
  4.537   4.563   4.563   4.710   6.993   6.993   7.099  10.393
 20 E    21 E    21 E    27 A1   22 E    22 E    28 A1   29 A1                 
 25.141  26.527  26.527  26.725  68.973 219.205
 30 A1   23 E    23 E    31 A1   32 A1   33 A1                                 
 --------------------------------------------------------------

          Ground-State Mulliken Net Atomic Charges

     Atom                 Charge (a.u.)
  ----------------------------------------
      1 F                    -0.573686
      2 C                    -0.013112
      3 H                     0.142887
      4 H                     0.142887
      5 H                     0.142887
      6 Cl                   -0.841865
  ----------------------------------------
  Sum of atomic charges =    -1.000000

 -----------------------------------------------------------------
                    Cartesian Multipole Moments
 -----------------------------------------------------------------
    Charge (ESU x 10^10)
                -4.8032
    Dipole Moment (Debye)
         X       0.0000      Y       0.0000      Z       2.4806
       Tot       2.4806
    Quadrupole Moments (Debye-Ang)
        XX     -27.9376     XY      -0.0000     YY     -27.9376
        XZ       0.0000     YZ       0.0000     ZZ     -61.5622
    Octopole Moments (Debye-Ang^2)
[...]
  7 A1    8 A1    2 E     2 E     9 A1    3 E     3 E     4 E                  
 -0.127  -0.125
  4 E    10 A1                                                                 
 -- Virtual --                   
  0.275   0.309   0.339   0.339   0.516   0.545   0.545   0.555
 11 A1   12 A1    5 E     5 E    13 A1    6 E     6 E     7 E                  
  0.555   0.669   0.838   0.895   0.895   1.027   1.167   1.167
  7 E    14 A1   15 A1    8 E     8 E    16 A1    9 E     9 E                  
  1.169   1.262   1.262   1.436   1.502   1.502   1.652   1.652
 17 A1   10 E    10 E    18 A1   11 E    11 E    12 E    12 E                  
  1.657   1.805   1.820   1.845   1.845   2.045   2.079   2.079
 19 A1   20 A1    1 A2   13 E    13 E    21 A1   14 E    14 E                  
  2.370   2.518   2.518   2.677   2.677   2.737   2.800   2.824
 22 A1   15 E    15 E    16 E    16 E    23 A1   24 A1   17 E                  
  2.824   2.963   2.963   3.237   3.684   4.232   4.232   4.749
 17 E    18 E    18 E    25 A1   26 A1   19 E    19 E    20 E                  
  4.749   4.749   4.749   4.749   7.172   7.172   7.180  10.359
 20 E    27 A1   21 E    21 E    22 E    22 E    28 A1   29 A1                 
 25.096  26.426  26.426  26.948  69.107 219.179
 30 A1   23 E    23 E    31 A1   32 A1   33 A1                                 

 Beta MOs, Restricted
 -- Occupied --                  
-104.72  -25.73  -11.17  -10.45   -7.92   -7.91   -7.91   -1.02
  1 A1    2 A1    3 A1    4 A1    5 A1    1 E     1 E     6 A1                 
 -1.013  -0.798  -0.495  -0.495  -0.439  -0.332  -0.332  -0.127
  7 A1    8 A1    2 E     2 E     9 A1    3 E     3 E     4 E                  
 -0.127  -0.125
  4 E    10 A1                                                                 
 -- Virtual --                   
  0.275   0.309   0.339   0.339   0.516   0.545   0.545   0.555
 11 A1   12 A1    5 E     5 E    13 A1    6 E     6 E     7 E                  
  0.555   0.669   0.838   0.895   0.895   1.027   1.167   1.167
  7 E    14 A1   15 A1    8 E     8 E    16 A1    9 E     9 E                  
  1.169   1.262   1.262   1.436   1.502   1.502   1.652   1.652
 17 A1   10 E    10 E    18 A1   11 E    11 E    12 E    12 E                  
  1.657   1.805   1.820   1.845   1.845   2.045   2.079   2.079
 19 A1   20 A1    1 A2   13 E    13 E    21 A1   14 E    14 E                  
  2.370   2.518   2.518   2.677   2.677   2.737   2.800   2.824
 22 A1   15 E    15 E    16 E    16 E    23 A1   24 A1   17 E                  
  2.824   2.963   2.963   3.237   3.684   4.232   4.232   4.749
 17 E    18 E    18 E    25 A1   26 A1   19 E    19 E    20 E                  
  4.749   4.749   4.749   4.749   7.172   7.172   7.180  10.359
 20 E    27 A1   21 E    21 E    22 E    22 E    28 A1   29 A1                 
 25.096  26.426  26.426  26.948  69.107 219.179
 30 A1   23 E    23 E    31 A1   32 A1   33 A1                                 
 --------------------------------------------------------------

          Ground-State Mulliken Net Atomic Charges

     Atom                 Charge (a.u.)
  ----------------------------------------
      1 F                    -0.978874
      2 C                    -0.299895
      3 H                     0.155851
      4 H                     0.155851
      5 H                     0.155851
      6 Cl                   -0.188784
  ----------------------------------------
  Sum of atomic charges =    -1.000000

 -----------------------------------------------------------------
                    Cartesian Multipole Moments
 -----------------------------------------------------------------
    Charge (ESU x 10^10)
                -4.8032
    Dipole Moment (Debye)
         X       0.0000      Y       0.0000      Z     -15.9865
       Tot      15.9865
    Quadrupole Moments (Debye-Ang)
        XX     -26.5467     XY      -0.0000     YY     -26.5467
        XZ       0.0000     YZ      -0.0000     ZZ    -105.4675
    Octopole Moments (Debye-Ang^2)
       XXX       0.8201    XXY       0.0000    XYY      -0.8201
       YYY       0.0000    XXZ       0.6335    XYZ       0.0000
       YYZ       0.6335    XZZ       0.0000    YZZ       0.0000
       ZZZ    -295.7404
    Hexadecapole Moments (Debye-Ang^3)
      XXXX     -34.6013   XXXY      -0.0000   XXYY     -11.5338
      XYYY      -0.0000   YYYY     -34.6013   XXXZ       0.2888
      XXYZ      -0.0000   XYYZ      -0.2888   YYYZ      -0.0000
      XXZZ    -152.2149   XYZZ      -0.0000   YYZZ    -152.2149
      XZZZ       0.0000   YZZZ      -0.0000   ZZZZ   -2046.0531
 -----------------------------------------------------------------
Archival summary:
1\1\Deborahs-MacBook-Air.local\OPT\MP2\6-311G**\l1113(1-,1)\WedMay713:41:282014WedMay713:41:282014\0\\#,OPT,MP2,6-311G**,\\-1,1\Cl\C,1,1.78688\H,2,1.08615,1,109.822\H,2,1.08615,1,109.822,3,-120,0\H,2,1.08615,1,109.822,3,120,0\F,3,3.77269,2,94.1079,1,-180,0\\HF=-598.548332\MP2=-599.140932\\@

 Total job time:  182.16s(wall), 181.36s(cpu) 
 Wed May  7 13:41:28 2014

        *************************************************************
        *                                                           *
        *  Thank you very much for using Q-Chem.  Have a nice day.  *
        *                                                           *
        *************************************************************


 
User input: 12 of 12 
 
                  Welcome to Q-Chem
     A Quantum Leap Into The Future Of Chemistry

 Y. Shao, L. Fusti-Molnar, Y. Jung, J. Kussmann, C. Ochsenfeld, S. T. Brown, 
 A. T. B. Gilbert, L. V. Slipchenko, S. V. Levchenko, D. P. O'Neill, 
 R. A. DiStasio Jr., R. C. Lochan, T. Wang, G. J. O. Beran, N. A. Besley, 
 J. M. Herbert, C. Y. Lin, T. Van Voorhis, S. H. Chien, A. Sodt, R. P. Steele, 
 V. A. Rassolov, P. E. Maslen, P. P. Korambath, R. D. Adamson, B. Austin, 
 J. Baker, E. F. C. Byrd, H. Dachsel, R. J. Doerksen, A. Dreuw, B. D. Dunietz, 
 A. D. Dutoi, T. R. Furlani, S. R. Gwaltney, A. Heyden, S. Hirata, C.-P. Hsu, 
 G. Kedziora, R. Z. Khaliullin, P. Klunzinger, A. M. Lee, M. S. Lee, W. Liang, 
 I. Lotan, N. Nair, B. Peters, E. I. Proynov, P. A. Pieniazek, Y. M. Rhee, 
 J. Ritchie, E. Rosta, C. D. Sherrill, A. C. Simmonett, J. E. Subotnik, 
 H. L. Woodcock III, W. Zhang, A. T. Bell, A. K. Chakraborty, D. M. Chipman, 
 F. J. Keil, A. Warshel, W. J. Hehre, H. F. Schaefer III, J. Kong, 
 A. I. Krylov, P. M. W. Gill, M. Head-Gordon

 Additional authors for Version 3.1: 
 Z. Gan, Y. Zhao, N. E. Schultz, D. Truhlar, E. Epifanovsky, M. Oana

 Additional authors for Version 3.2: 
 R. Baer, B. R. Brooks, D. Casanova, J.-D. Chai, C.-L. Cheng, C. Cramer, 
 D. Crittenden, A. Ghysels, G. Hawkins, E. G. Hohenstein, C. Kelley, 
 W. Kurlancheek, D. Liotard, E. Livshits, P. Manohar, A. Marenich, 
 D. Neuhauser, R. Olson, M. A. Rohrdanz, K. S. Thanthiriwatte, A. J. W. Thom, 
 V. Vanovschi, C. F. Williams, Q. Wu, Z.-Q. You

 Additional authors for Version 4.0: 
 A. Aspuru-Guzik, Y. Bernard, C. Chang, J. Deng, A. Dreuw, M. Diedenhofen, 
 R. G. Edgar, D. Ghosh, W. A. Goddard III, M. Goldey, L. D. Jacobson, 
 M. Gordon, B. Kaduk, I. Kaliman, K. Khistyaev, R. King, A. Klamt, 
 D. Kosenkov, T. Kus, D. Lambrecht, A. Landau, A. W. Lange, K. Lawler, F. Liu, 
 J. Liu, R. Olivares-Amaya, S. P. Mao, J. Parkhill, N. Russ, M. Schmidt, 
 N. Shenvi, D. Small, Y. C. Su, E. Sundstrom, L. Vogt, O. Vydrov, M. Watson, 
 M. Wormit, X. Xu, S. Yeganeh, I. Y. Zhang, D. Zuev

 Additional authors for Version 4.1: 
 X. Feng, M. W. D. Hanson-Heine, P. Horn, H. Ji, A. Laurent, R. Peverati, 
 N. Mardirossian, N. Sergueev, S. Sharada, P. Zimmerman

 Q-Chem, Version 4.1, Q-Chem, Inc., Pittsburgh, PA (2013).

 Parts of Q-Chem use Armadillo 4.100.2 (Dirt Cruiser).
 http://arma.sourceforge.net/

 MAC (Intel) OSX Version 4.1.2

 Q-chem begins on Wed May  7 13:41:28 2014  

Deborahs-MacBook-Air.local
Host: 0

     Scratch files written to /tmp/qchem30043//
 Apr1114 |Users|Deb|Programs|trunk|libmdc|qstr_info.C -1
Finally everything over in PARseQInput

--------------------------------------------------------------
User input:
--------------------------------------------------------------
$molecule
-1 1
F 0.000000 0.000000 -2.537929
C 0.000000 0.000000 -0.488372
H 1.062087 0.000000 -0.614972
H -0.531044 0.919794 -0.614972
H -0.531044 -0.919794 -0.614972
Cl 0.000000 0.000000 1.624501
$end

$rem
JOBTYPE OPT
EXCHANGE HF
CORRELATION MP2
BASIS 6-311G**
SCF_GUESS READ 
$end

$opt
CONSTRAINT
stre 1 2 5.0
$end
--------------------------------------------------------------
 Atom   1: (  0.0000000436,  0.0000000000,  2.5379292286)
         ->(  0.0000000109, -0.0000000189,  2.5379292286)
 Atom   1: (  0.0000000109, -0.0000000189,  2.5379292286)
         ->(  0.0000000109,  0.0000000000,  2.5379292286)
 Atom   1: (  0.0000000109,  0.0000000000,  2.5379292286)
         ->(  0.0000000027,  0.0000000047,  2.5379292286)
 Atom   1: (  0.0000000027,  0.0000000047,  2.5379292286)
         ->( -0.0000000014,  0.0000000024,  2.5379292286)
 Atom   2: (  0.0000000315,  0.0000000000,  0.4883722286)
         ->(  0.0000000079, -0.0000000136,  0.4883722286)
 Atom   2: (  0.0000000079, -0.0000000136,  0.4883722286)
         ->(  0.0000000079,  0.0000000000,  0.4883722286)
 Atom   2: (  0.0000000079,  0.0000000000,  0.4883722286)
         ->(  0.0000000020,  0.0000000034,  0.4883722286)
 Atom   2: (  0.0000000020,  0.0000000034,  0.4883722286)
         ->( -0.0000000010,  0.0000000017,  0.4883722286)
 Atom   4: ( -0.5310439678, -0.9197940000,  0.6149722317)
         ->( -0.5310435161, -0.9197943509,  0.6149722223)
 Atom   5: ( -0.5310439678,  0.9197940000,  0.6149722317)
         ->( -0.5310435161,  0.9197943509,  0.6149722223)
 Atom   6: (  0.0000000189,  0.0000000000, -1.6245007714)
         ->(  0.0000000047, -0.0000000082, -1.6245007714)
 Atom   6: (  0.0000000047, -0.0000000082, -1.6245007714)
         ->(  0.0000000047,  0.0000000000, -1.6245007714)
 Atom   6: (  0.0000000047,  0.0000000000, -1.6245007714)
         ->(  0.0000000012,  0.0000000021, -1.6245007714)
 ----------------------------------------------------------------
             Standard Nuclear Orientation (Angstroms)
    I     Atom           X                Y                Z
 ----------------------------------------------------------------
    1      F      -0.0000000014     0.0000000024     2.5379292286
    2      C      -0.0000000010     0.0000000017     0.4883722286
    3      H       1.0620870322     0.0000000000     0.6149722223
    4      H      -0.5310435161    -0.9197943509     0.6149722223
    5      H      -0.5310435161     0.9197943509     0.6149722223
    6      Cl      0.0000000012     0.0000000021    -1.6245007714
 ----------------------------------------------------------------
 Molecular Point Group                 C3v   NOp =  6
 Largest Abelian Subgroup              Cs    NOp =  2
 Nuclear Repulsion Energy =    86.1006736723 hartrees
 There are       18 alpha and       18 beta electrons
 Requested basis set is 6-311G(d,p)
 There are 34 shells and 80 basis functions

Total QAlloc Memory Limit   2000 MB
Mega-Array Size        61 MB
MEM_STATIC part        62 MB
 A cutoff of  1.0D-11 yielded    558 shell pairs
 There are      3066 function pairs (      3293 Cartesian)
 Smallest overlap matrix eigenvalue = 1.07E-02

  Scale SEOQF with 1.000000e+00/1.000000e+00/1.000000e-01

 Standard Electronic Orientation quadrupole field applied
 Nucleus-field energy     =    -0.0000000095 hartrees
 Guess MOs from SCF MO coefficient file
Reading MOs from coefficient file
Reading MOs from coefficient file
 A restricted Hartree-Fock SCF calculation will be
 performed using Pulay DIIS extrapolation
 SCF converges when DIIS error is below 1.0E-08
 ---------------------------------------
  Cycle       Energy         DIIS Error
 ---------------------------------------
    1    -598.5786885839      1.47E-02
    2    -598.5573383178      4.12E-03
    3    -598.5707477789      1.58E-03
    4    -598.5730320567      5.25E-04
    5    -598.5734877433      2.00E-04
    6    -598.5735890653      6.43E-05
    7    -598.5735954757      1.42E-05
    8    -598.5735958665      3.15E-06
    9    -598.5735958819      7.95E-07
   10    -598.5735958833      2.56E-07
   11    -598.5735958834      5.79E-08
   12    -598.5735958834      1.01E-08
   13    -598.5735958834      4.32E-09 Convergence criterion met
 ---------------------------------------
 SCF time:  CPU 1.67 s  wall 1.68 s
 SCF   energy in the final basis set = -598.5735958834
 Total energy in the final basis set = -598.5735958834

 Components of the MP2 correlation energy:
        aaaa  correlation energy =        -0.0709759879 au
        abab  correlation energy =        -0.4516078409 au
        bbbb  correlation energy =        -0.0709759879 au
        non-Brillouin singles    =        -0.0000000000 au

 Total  MP2   correlation energy =        -0.5935598166 au
        MP2         total energy =      -599.1671557000 au

  Entering Z-vector solver.
OV_DIM:  Setting MaxSz  = 1116
OV_DIM:  Setting MaxSpc = 1116
   1         0           1      0.000557    0.000557
   2         0           1      0.000175    0.000175
   3         0           1      0.000061    0.000061
   4         0           1      0.000017    0.000017
   5         0           1      0.000004    0.000004
   6         1           0      0.000000    0.000000    Roots Converged
 Analysis of SCF Wavefunction

 --------------------------------------------------------------
             Orbital Energies (a.u.) and Symmetries
 --------------------------------------------------------------

 Alpha MOs, Restricted
 -- Occupied --                  
-104.60  -25.86  -11.14  -10.33   -7.79   -7.79   -7.79   -1.14
  1 A1    2 A1    3 A1    4 A1    5 A1    1 E     1 E     6 A1                 
 -0.876  -0.745  -0.452  -0.452  -0.308  -0.250  -0.250  -0.236
  7 A1    8 A1    2 E     2 E     9 A1    3 E     3 E     4 E                  
 -0.236  -0.203
  4 E    10 A1                                                                 
 -- Virtual --                   
  0.320   0.357   0.383   0.383   0.580   0.613   0.613   0.628
 11 A1   12 A1    5 E     5 E    13 A1    6 E     6 E     7 E                  
  0.628   0.843   0.915   0.950   0.950   1.151   1.192   1.305
  7 E    14 A1   15 A1    8 E     8 E    16 A1   17 A1    9 E                  
  1.305   1.374   1.374   1.470   1.470   1.472   1.616   1.660
  9 E    10 E    10 E    11 E    11 E    18 A1   19 A1   12 E                  
  1.660   1.824   1.874   1.874   1.932   2.168   2.237   2.237
 12 E     1 A2   13 E    13 E    20 A1   21 A1   14 E    14 E                  
  2.458   2.458   2.481   2.719   2.719   2.768   2.901   2.901
 15 E    15 E    22 A1   16 E    16 E    23 A1   17 E    17 E                  
  2.998   3.118   3.118   3.431   3.445   4.280   4.280   4.629
 24 A1   18 E    18 E    25 A1   26 A1   19 E    19 E    20 E                  
  4.629   4.633   4.633   4.722   7.084   7.084   7.203  10.402
 20 E    21 E    21 E    27 A1   22 E    22 E    28 A1   29 A1                 
 25.183  26.503  26.503  26.939  69.066 219.225
 30 A1   23 E    23 E    31 A1   32 A1   33 A1                                 

 Beta MOs, Restricted
 -- Occupied --                  
-104.60  -25.86  -11.14  -10.33   -7.79   -7.79   -7.79   -1.14
  1 A1    2 A1    3 A1    4 A1    5 A1    1 E     1 E     6 A1                 
 -0.876  -0.745  -0.452  -0.452  -0.308  -0.250  -0.250  -0.236
  7 A1    8 A1    2 E     2 E     9 A1    3 E     3 E     4 E                  
 -0.236  -0.203
  4 E    10 A1                                                                 
 -- Virtual --                   
  0.320   0.357   0.383   0.383   0.580   0.613   0.613   0.628
 11 A1   12 A1    5 E     5 E    13 A1    6 E     6 E     7 E                  
  0.628   0.843   0.915   0.950   0.950   1.151   1.192   1.305
  7 E    14 A1   15 A1    8 E     8 E    16 A1   17 A1    9 E                  
  1.305   1.374   1.374   1.470   1.470   1.472   1.616   1.660
  9 E    10 E    10 E    11 E    11 E    18 A1   19 A1   12 E                  
  1.660   1.824   1.874   1.874   1.932   2.168   2.237   2.237
 12 E     1 A2   13 E    13 E    20 A1   21 A1   14 E    14 E                  
  2.458   2.458   2.481   2.719   2.719   2.768   2.901   2.901
 15 E    15 E    22 A1   16 E    16 E    23 A1   17 E    17 E                  
  2.998   3.118   3.118   3.431   3.445   4.280   4.280   4.629
 24 A1   18 E    18 E    25 A1   26 A1   19 E    19 E    20 E                  
  4.629   4.633   4.633   4.722   7.084   7.084   7.203  10.402
 20 E    21 E    21 E    27 A1   22 E    22 E    28 A1   29 A1                 
 25.183  26.503  26.503  26.939  69.066 219.225
 30 A1   23 E    23 E    31 A1   32 A1   33 A1                                 
 --------------------------------------------------------------

          Ground-State Mulliken Net Atomic Charges

     Atom                 Charge (a.u.)
  ----------------------------------------
      1 F                    -0.724262
      2 C                    -0.125625
      3 H                     0.139079
      4 H                     0.139079
      5 H                     0.139079
      6 Cl                   -0.567350
  ----------------------------------------
  Sum of atomic charges =    -1.000000

 -----------------------------------------------------------------
                    Cartesian Multipole Moments
 -----------------------------------------------------------------
    Charge (ESU x 10^10)
                -4.8032
    Dipole Moment (Debye)
         X       0.0000      Y      -0.0000      Z      -2.9206
       Tot       2.9206
    Quadrupole Moments (Debye-Ang)
        XX     -27.4473     XY       0.0000     YY     -27.4473
        XZ       0.0000     YZ      -0.0000     ZZ     -58.7597
    Octopole Moments (Debye-Ang^2)
       XXX       0.8893    XXY      -0.0000    XYY      -0.8893
       YYY      -0.0000    XXZ       7.1267    XYZ       0.0000
       YYZ       7.1267    XZZ       0.0000    YZZ      -0.0000
       ZZZ     -27.2119
    Hexadecapole Moments (Debye-Ang^3)
      XXXX     -37.8829   XXXY       0.0000   XXYY     -12.6276
      XYYY       0.0000   YYYY     -37.8829   XXXZ       0.4884
      XXYZ       0.0000   XYYZ      -0.4884   YYYZ       0.0000
      XXZZ     -91.6199   XYZZ       0.0000   YYZZ     -91.6199
      XZZZ       0.0000   YZZZ      -0.0000   ZZZZ    -661.4478
 -----------------------------------------------------------------
 DrvMan is completing analytic gradient of the MP2 energy
 MP2 relaxed dipole moment
            1
    1   0.0000000
    2  -0.0000000
    3  -1.1490672
	Magnitude:	 1.149 au	 2.921 Debye
 MP2 energy read as -599.167156
 Full Analytical Gradient of MP2 Energy (in au.)
             1             2             3             4             5
    1   -0.00000000   -0.00000000   -0.00180362    0.00090181    0.00090181
    2    0.00000000    0.00000000   -0.00000000    0.00156198   -0.00156199
    3    0.01013535   -0.01000160   -0.00072550   -0.00072550   -0.00072550
             6
    1   -0.00000000
    2   -0.00000000
    3    0.00204274
 Gradient time:  CPU 0.01 s  wall 0.01 s

  ***ERROR*** No ENDCON marker found for Constraints

 Q-Chem fatal error occurred in module 0, line    9:

 OPTIMIZE fatal error

Reading symbols for shared libraries ......... done
Attaching to program: `/Users/Deb/Programs/trunk/exe/qcprog.exe', process 30349.
Reading symbols for shared libraries + done
Reading symbols for shared libraries +++++++++......................................... done
Reading symbols for shared libraries + done
0x00007fff911e96ac in wait4 ()
(gdb) #0  0x00007fff911e96ac in wait4 ()
#1  0x00007fff8e89c002 in system ()
#2  0x000000010f23319a in QTraceback ()
(gdb) Detaching from program: `/Users/Deb/Programs/trunk/exe/qcprog.exe', process 30349.
