                  Welcome to Q-Chem
     A Quantum Leap Into The Future Of Chemistry

 Y. Shao, L. Fusti-Molnar, Y. Jung, J. Kussmann, C. Ochsenfeld, S. T. Brown, 
 A. T. B. Gilbert, L. V. Slipchenko, S. V. Levchenko, D. P. O'Neill, 
 R. A. DiStasio Jr., R. C. Lochan, T. Wang, G. J. O. Beran, N. A. Besley, 
 J. M. Herbert, C. Y. Lin, T. Van Voorhis, S. H. Chien, A. Sodt, R. P. Steele, 
 V. A. Rassolov, P. E. Maslen, P. P. Korambath, R. D. Adamson, B. Austin, 
 J. Baker, E. F. C. Byrd, H. Dachsel, R. J. Doerksen, A. Dreuw, B. D. Dunietz, 
 A. D. Dutoi, T. R. Furlani, S. R. Gwaltney, A. Heyden, S. Hirata, C.-P. Hsu, 
 G. Kedziora, R. Z. Khaliullin, P. Klunzinger, A. M. Lee, M. S. Lee, W. Liang, 
 I. Lotan, N. Nair, B. Peters, E. I. Proynov, P. A. Pieniazek, Y. M. Rhee, 
 J. Ritchie, E. Rosta, C. D. Sherrill, A. C. Simmonett, J. E. Subotnik, 
 H. L. Woodcock III, W. Zhang, A. T. Bell, A. K. Chakraborty, D. M. Chipman, 
 F. J. Keil, A. Warshel, W. J. Hehre, H. F. Schaefer III, J. Kong, 
 A. I. Krylov, P. M. W. Gill, M. Head-Gordon

 Additional authors for Version 3.1: 
 Z. Gan, Y. Zhao, N. E. Schultz, D. Truhlar, E. Epifanovsky, M. Oana

 Additional authors for Version 3.2: 
 R. Baer, B. R. Brooks, D. Casanova, J.-D. Chai, C.-L. Cheng, C. Cramer, 
 D. Crittenden, A. Ghysels, G. Hawkins, E. G. Hohenstein, C. Kelley, 
 W. Kurlancheek, D. Liotard, E. Livshits, P. Manohar, A. Marenich, 
 D. Neuhauser, R. Olson, M. A. Rohrdanz, K. S. Thanthiriwatte, A. J. W. Thom, 
 V. Vanovschi, C. F. Williams, Q. Wu, Z.-Q. You

 Additional authors for Version 4.0: 
 A. Aspuru-Guzik, Y. Bernard, C. Chang, J. Deng, A. Dreuw, M. Diedenhofen, 
 R. G. Edgar, D. Ghosh, W. A. Goddard III, M. Goldey, L. D. Jacobson, 
 M. Gordon, B. Kaduk, I. Kaliman, K. Khistyaev, R. King, A. Klamt, 
 D. Kosenkov, T. Kus, D. Lambrecht, A. Landau, A. W. Lange, K. Lawler, F. Liu, 
 J. Liu, R. Olivares-Amaya, S. P. Mao, J. Parkhill, N. Russ, M. Schmidt, 
 N. Shenvi, D. Small, Y. C. Su, E. Sundstrom, L. Vogt, O. Vydrov, M. Watson, 
 M. Wormit, X. Xu, S. Yeganeh, I. Y. Zhang, D. Zuev

 Additional authors for Version 4.1: 
 X. Feng, M. W. D. Hanson-Heine, P. Horn, H. Ji, A. Laurent, R. Peverati, 
 N. Mardirossian, N. Sergueev, S. Sharada, P. Zimmerman

 Q-Chem, Version 4.1, Q-Chem, Inc., Pittsburgh, PA (2013).

 Parts of Q-Chem use Armadillo 4.100.2 (Dirt Cruiser).
 http://arma.sourceforge.net/

 MAC (Intel) OSX Version 4.1.2

 Q-chem begins on Wed May  7 14:17:42 2014  

Deborahs-MacBook-Air.local
Host: 0

     Scratch files written to /tmp/qchem30772//
 Apr1114 |Users|Deb|Programs|trunk|libmdc|qstr_info.C -1
Finally everything over in PARseQInput

--------------------------------------------------------------
User input:
--------------------------------------------------------------
$molecule
0 1
F 0.000000 0.000000 -2.537929
C 0.000000 0.000000 -0.488372
H 1.062087 0.000000 -0.614972
H -0.531044 0.919794 -0.614972
H -0.531044 -0.919794 -0.614972
$end

$rem
JOBTYPE OPT
EXCHANGE HF
CORRELATION MP2
BASIS 6-311G**
$end
--------------------------------------------------------------
 Atom   2: (  0.0000001139,  0.0000000000, -1.0458785000)
         ->(  0.0000000285, -0.0000000493, -1.0458785000)
 Atom   2: (  0.0000000285, -0.0000000493, -1.0458785000)
         ->(  0.0000000285,  0.0000000000, -1.0458785000)
 Atom   2: (  0.0000000285,  0.0000000000, -1.0458785000)
         ->(  0.0000000071,  0.0000000123, -1.0458785000)
 Atom   2: (  0.0000000071,  0.0000000123, -1.0458785000)
         ->( -0.0000000036,  0.0000000062, -1.0458785000)
 Atom   4: ( -0.5310438931, -0.9197940000, -0.9192785296)
         ->( -0.5310435534, -0.9197944156, -0.9192784407)
 Atom   5: ( -0.5310438931,  0.9197940000, -0.9192785296)
         ->( -0.5310435534,  0.9197944156, -0.9192784407)
 ----------------------------------------------------------------
             Standard Nuclear Orientation (Angstroms)
    I     Atom           X                Y                Z
 ----------------------------------------------------------------
    1      F      -0.0000000005    -0.0000000000     1.0036785000
    2      C      -0.0000000036     0.0000000062    -1.0458785000
    3      H       1.0620871069     0.0000000000    -0.9192784407
    4      H      -0.5310435534    -0.9197944156    -0.9192784407
    5      H      -0.5310435534     0.9197944156    -0.9192784407
 ----------------------------------------------------------------
 Molecular Point Group                 C3v   NOp =  6
 Largest Abelian Subgroup              Cs    NOp =  2
 Nuclear Repulsion Energy =    30.2146259802 hartrees
 There are        9 alpha and        9 beta electrons
 Requested basis set is 6-311G(d,p)
 There are 22 shells and 54 basis functions

Total QAlloc Memory Limit   2000 MB
Mega-Array Size        61 MB
MEM_STATIC part        62 MB
 A cutoff of  1.0D-11 yielded    253 shell pairs
 There are      1550 function pairs (      1671 Cartesian)
 Smallest overlap matrix eigenvalue = 1.24E-02

  Scale SEOQF with 1.000000e+00/1.000000e+00/1.000000e+00

 Standard Electronic Orientation quadrupole field applied
 Nucleus-field energy     =    -0.0000000176 hartrees
 Guess from superposition of atomic densities
 Warning:  Energy on first SCF cycle will be non-variational
 A restricted Hartree-Fock SCF calculation will be
 performed using Pulay DIIS extrapolation
 SCF converges when DIIS error is below 1.0E-08
 ---------------------------------------
  Cycle       Energy         DIIS Error
 ---------------------------------------
    1    -138.6554711927      5.90E-02
    2    -138.8400317605      1.78E-02
    3    -138.8855318860      1.69E-02
    4    -138.9518336218      1.10E-03
    5    -138.9524984920      2.77E-04
    6    -138.9525421072      8.68E-05
    7    -138.9525482030      3.54E-05
    8    -138.9525491195      1.44E-05
    9    -138.9525492418      1.03E-06
   10    -138.9525492428      1.22E-07
   11    -138.9525492428      2.49E-08
   12    -138.9525492428      7.90E-09 Convergence criterion met
 ---------------------------------------
 SCF time:  CPU 0.45 s  wall 0.45 s
 SCF   energy in the final basis set = -138.9525492428
 Total energy in the final basis set = -138.9525492428

 Components of the MP2 correlation energy:
        aaaa  correlation energy =        -0.0454171891 au
        abab  correlation energy =        -0.3155490952 au
        bbbb  correlation energy =        -0.0454171891 au
        non-Brillouin singles    =        -0.0000000000 au

 Total  MP2   correlation energy =        -0.4063834735 au
        MP2         total energy =      -139.3589327162 au

  Entering Z-vector solver.
OV_DIM:  Setting MaxSz  = 405
OV_DIM:  Setting MaxSpc = 405
   1         0           1      0.001523    0.001523
   2         0           1      0.000595    0.000595
   3         0           1      0.000207    0.000207
   4         0           1      0.000039    0.000039
   5         0           1      0.000005    0.000005
   6         1           0      0.000000    0.000000    Roots Converged
 Analysis of SCF Wavefunction

 --------------------------------------------------------------
             Orbital Energies (a.u.) and Symmetries
 --------------------------------------------------------------

 Alpha MOs, Restricted
 -- Occupied --                  
-26.136 -11.371  -1.382  -0.996  -0.671  -0.671  -0.489  -0.489
  1 A1    2 A1    3 A1    4 A1    1 E     1 E     2 E     2 E                  
 -0.453
  5 A1                                                                         
 -- Virtual --                   
  0.036   0.142   0.203   0.203   0.396   0.396   0.542   0.644
  6 A1    7 A1    3 E     3 E     4 E     4 E     8 A1    9 A1                 
  0.742   0.742   0.909   1.150   1.150   1.370   1.424   1.424
  5 E     5 E    10 A1    6 E     6 E    11 A1    7 E     7 E                  
  1.604   1.608   1.608   1.626   1.884   2.018   2.018   2.039
  1 A2    8 E     8 E    12 A1   13 A1    9 E     9 E    14 A1                 
  2.236   2.236   2.660   2.660   2.697   2.889   2.889   3.005
 10 E    10 E    11 E    11 E    15 A1   12 E    12 E    16 A1                 
  3.140   4.046   4.046   4.381   4.381   4.386   4.386   4.471
 17 A1   13 E    13 E    14 E    14 E    15 E    15 E    18 A1                 
  6.828   6.828   6.941  24.947  68.786
 16 E    16 E    19 A1   20 A1   21 A1                                         

 Beta MOs, Restricted
 -- Occupied --                  
-26.136 -11.371  -1.382  -0.996  -0.671  -0.671  -0.489  -0.489
  1 A1    2 A1    3 A1    4 A1    1 E     1 E     2 E     2 E                  
 -0.453
  5 A1                                                                         
 -- Virtual --                   
  0.036   0.142   0.203   0.203   0.396   0.396   0.542   0.644
  6 A1    7 A1    3 E     3 E     4 E     4 E     8 A1    9 A1                 
  0.742   0.742   0.909   1.150   1.150   1.370   1.424   1.424
  5 E     5 E    10 A1    6 E     6 E    11 A1    7 E     7 E                  
  1.604   1.608   1.608   1.626   1.884   2.018   2.018   2.039
  1 A2    8 E     8 E    12 A1   13 A1    9 E     9 E    14 A1                 
  2.236   2.236   2.660   2.660   2.697   2.889   2.889   3.005
 10 E    10 E    11 E    11 E    15 A1   12 E    12 E    16 A1                 
  3.140   4.046   4.046   4.381   4.381   4.386   4.386   4.471
 17 A1   13 E    13 E    14 E    14 E    15 E    15 E    18 A1                 
  6.828   6.828   6.941  24.947  68.786
 16 E    16 E    19 A1   20 A1   21 A1                                         
 --------------------------------------------------------------

          Ground-State Mulliken Net Atomic Charges

     Atom                 Charge (a.u.)
  ----------------------------------------
      1 F                    -0.385191
      2 C                    -0.157632
      3 H                     0.180941
      4 H                     0.180941
      5 H                     0.180941
  ----------------------------------------
  Sum of atomic charges =     0.000000

 -----------------------------------------------------------------
                    Cartesian Multipole Moments
 -----------------------------------------------------------------
    Charge (ESU x 10^10)
                 0.0000
    Dipole Moment (Debye)
         X       0.0000      Y      -0.0000      Z      -3.3755
       Tot       3.3755
    Quadrupole Moments (Debye-Ang)
        XX     -11.4064     XY       0.0000     YY     -11.4064
        XZ      -0.0000     YZ       0.0000     ZZ     -12.6969
    Octopole Moments (Debye-Ang^2)
       XXX       1.1073    XXY      -0.0000    XYY      -1.1073
       YYY      -0.0000    XXZ       1.2514    XYZ      -0.0000
       YYZ       1.2514    XZZ       0.0000    YZZ      -0.0000
       ZZZ       4.9762
    Hexadecapole Moments (Debye-Ang^3)
      XXXX     -15.0487   XXXY       0.0000   XXYY      -5.0162
      XYYY       0.0000   YYYY     -15.0487   XXXZ      -0.9187
      XXYZ       0.0000   XYYZ       0.9187   YYYZ       0.0000
      XXZZ     -16.9501   XYZZ       0.0000   YYZZ     -16.9501
      XZZZ      -0.0000   YZZZ       0.0000   ZZZZ     -84.4694
 -----------------------------------------------------------------
 DrvMan is completing analytic gradient of the MP2 energy
 MP2 relaxed dipole moment
            1
    1   0.0000000
    2  -0.0000000
    3  -1.3280391
	Magnitude:	 1.328 au	 3.376 Debye
 MP2 energy read as -139.358933
 Full Analytical Gradient of MP2 Energy (in au.)
             1             2             3             4             5
    1    0.00000000   -0.00000000   -0.01138043    0.00569022    0.00569022
    2   -0.00000000    0.00000001   -0.00000000    0.00985574   -0.00985575
    3    0.06843207   -0.12474400    0.01877064    0.01877064    0.01877064
 Gradient time:  CPU 0.00 s  wall 0.00 s
 Geometry Optimization Parameters
   NAtoms,    NIC,     NZ,  NCons,   NDum,   NFix, NCnnct, MaxDiis
        5      50       0       0       0       0       0       0


** GEOMETRY OPTIMIZATION IN DELOCALIZED INTERNAL COORDINATES **
   Searching for a Minimum

   Optimization Cycle:   1

                       Coordinates (Angstroms)
     ATOM                X               Y               Z
      1  F         0.0000000000    0.0000000000    1.0036785000
      2  C         0.0000000000    0.0000000000   -1.0458785000
      3  H         1.0620871069    0.0000000000   -0.9192784407
      4  H        -0.5310435534   -0.9197944156   -0.9192784407
      5  H        -0.5310435534    0.9197944156   -0.9192784407
   Point Group: c3v   Number of degrees of freedom:     3


   Energy is   -139.358932716


 Attempting to Generate Delocalized Internal Coordinates
 GETINT wrote B to file, NVib is            9
 calling HSSCONV
 HCONV 3*NATOMS:           15
 wrote HINT to file
  writing hessian 

  3 Hessian modes will be used to form the next step
  Hessian Eigenvalues:
     0.039370    0.061366    0.314837

 Minimum Search - Taking Simple RFO Step
 Searching for Lamda that Minimizes Along All modes
 Value Taken    Lamda =  -0.03325174
 Calculated Step too Large.  Step scaled by  0.508861
 Step Taken.  Stepsize is  0.300000

                             Maximum     Tolerance    Cnvgd?
         Gradient           0.045591      0.000300      NO
         Displacement       0.255666      0.001200      NO
         Energy change     *********      0.000001      NO


 New Cartesian Coordinates Obtained by Inverse Iteration

 Displacement from previous Coordinates is:  0.118340
 ----------------------------------------------------------------
             Standard Nuclear Orientation (Angstroms)
    I     Atom           X                Y                Z
 ----------------------------------------------------------------
    1      F       0.0000000000     0.0000000000     0.9637830480
    2      C       0.0000000000     0.0000000000    -0.9993195991
    3      H       1.0690980811     0.0000000000    -0.9214995904
    4      H      -0.5345490405    -0.9258660973    -0.9214995904
    5      H      -0.5345490405     0.9258660973    -0.9214995904
 ----------------------------------------------------------------
 Molecular Point Group                 C3v   NOp =  6
 Largest Abelian Subgroup              Cs    NOp =  2
 Nuclear Repulsion Energy =    30.8920833499 hartrees
 There are        9 alpha and        9 beta electrons
 Applying Cartesian multipole field
    Component          Value
    ---------          -----
     (2,0,0)        1.00000E-10
     (0,2,0)        2.00000E-10
     (0,0,2)       -3.00000E-10
 Nucleus-field energy     =    -0.0000000163 hartrees
 Requested basis set is 6-311G(d,p)
 There are 22 shells and 54 basis functions
 A cutoff of  1.0D-11 yielded    253 shell pairs
 There are      1550 function pairs (      1671 Cartesian)
 Smallest overlap matrix eigenvalue = 1.27E-02
 Guess MOs from SCF MO coefficient file
Reading MOs from coefficient file
Reading MOs from coefficient file
 A restricted Hartree-Fock SCF calculation will be
 performed using Pulay DIIS extrapolation
 SCF converges when DIIS error is below 1.0E-08
Geometry optimization detected.  Setting ReadMinima to 0
Setting SaveMinima to 0
 ---------------------------------------
  Cycle       Energy         DIIS Error
 ---------------------------------------
    1    -138.9841100449      2.62E-03
    2    -138.9700955227      6.23E-04
    3    -138.9702204217      2.20E-04
    4    -138.9702379470      1.16E-04
    5    -138.9702422976      2.62E-05
    6    -138.9702431746      1.28E-05
    7    -138.9702432694      3.36E-06
    8    -138.9702432814      4.34E-07
    9    -138.9702432816      5.59E-08
   10    -138.9702432816      7.24E-09 Convergence criterion met
 ---------------------------------------
 SCF time:  CPU 0.48 s  wall 0.48 s
 SCF   energy in the final basis set = -138.9702432816
 Total energy in the final basis set = -138.9702432816

 Components of the MP2 correlation energy:
        aaaa  correlation energy =        -0.0454305518 au
        abab  correlation energy =        -0.3148124174 au
        bbbb  correlation energy =        -0.0454305518 au
        non-Brillouin singles    =        -0.0000000000 au

 Total  MP2   correlation energy =        -0.4056735210 au
        MP2         total energy =      -139.3759168026 au

  Entering Z-vector solver.
OV_DIM:  Setting MaxSz  = 405
OV_DIM:  Setting MaxSpc = 405
   1         0           1      0.001305    0.001305
   2         0           1      0.000506    0.000506
   3         0           1      0.000175    0.000175
   4         0           1      0.000034    0.000034
   5         0           1      0.000004    0.000004
   6         1           0      0.000000    0.000000    Roots Converged
 Analysis of SCF Wavefunction

 --------------------------------------------------------------
             Orbital Energies (a.u.) and Symmetries
 --------------------------------------------------------------

 Alpha MOs, Restricted
 -- Occupied --                  
-26.149 -11.364  -1.397  -0.988  -0.666  -0.666  -0.500  -0.500
  1 A1    2 A1    3 A1    4 A1    1 E     1 E     2 E     2 E                  
 -0.469
  5 A1                                                                         
 -- Virtual --                   
  0.060   0.143   0.204   0.204   0.403   0.403   0.540   0.645
  6 A1    7 A1    3 E     3 E     4 E     4 E     8 A1    9 A1                 
  0.747   0.747   0.910   1.148   1.148   1.379   1.436   1.436
  5 E     5 E    10 A1    6 E     6 E    11 A1    7 E     7 E                  
  1.603   1.611   1.611   1.619   1.908   2.046   2.056   2.056
  1 A2    8 E     8 E    12 A1   13 A1   14 A1    9 E     9 E                  
  2.208   2.208   2.662   2.662   2.700   2.902   2.902   3.007
 10 E    10 E    11 E    11 E    15 A1   12 E    12 E    16 A1                 
  3.127   4.048   4.048   4.371   4.371   4.380   4.380   4.498
 17 A1   13 E    13 E    14 E    14 E    15 E    15 E    18 A1                 
  6.820   6.820   6.930  24.949  68.783
 16 E    16 E    19 A1   20 A1   21 A1                                         

 Beta MOs, Restricted
 -- Occupied --                  
-26.149 -11.364  -1.397  -0.988  -0.666  -0.666  -0.500  -0.500
  1 A1    2 A1    3 A1    4 A1    1 E     1 E     2 E     2 E                  
 -0.469
  5 A1                                                                         
 -- Virtual --                   
  0.060   0.143   0.204   0.204   0.403   0.403   0.540   0.645
  6 A1    7 A1    3 E     3 E     4 E     4 E     8 A1    9 A1                 
  0.747   0.747   0.910   1.148   1.148   1.379   1.436   1.436
  5 E     5 E    10 A1    6 E     6 E    11 A1    7 E     7 E                  
  1.603   1.611   1.611   1.619   1.908   2.046   2.056   2.056
  1 A2    8 E     8 E    12 A1   13 A1   14 A1    9 E     9 E                  
  2.208   2.208   2.662   2.662   2.700   2.902   2.902   3.007
 10 E    10 E    11 E    11 E    15 A1   12 E    12 E    16 A1                 
  3.127   4.048   4.048   4.371   4.371   4.380   4.380   4.498
 17 A1   13 E    13 E    14 E    14 E    15 E    15 E    18 A1                 
  6.820   6.820   6.930  24.949  68.783
 16 E    16 E    19 A1   20 A1   21 A1                                         
 --------------------------------------------------------------

          Ground-State Mulliken Net Atomic Charges

     Atom                 Charge (a.u.)
  ----------------------------------------
      1 F                    -0.402437
      2 C                    -0.123740
      3 H                     0.175392
      4 H                     0.175392
      5 H                     0.175392
  ----------------------------------------
  Sum of atomic charges =    -0.000000

 -----------------------------------------------------------------
                    Cartesian Multipole Moments
 -----------------------------------------------------------------
    Charge (ESU x 10^10)
                -0.0000
    Dipole Moment (Debye)
         X       0.0000      Y       0.0000      Z      -3.3408
       Tot       3.3408
    Quadrupole Moments (Debye-Ang)
        XX     -11.3635     XY       0.0000     YY     -11.3635
        XZ      -0.0000     YZ       0.0000     ZZ     -12.6657
    Octopole Moments (Debye-Ang^2)
       XXX       1.1229    XXY       0.0000    XYY      -1.1229
       YYY       0.0000    XXZ       1.1721    XYZ       0.0000
       YYZ       1.1721    XZZ       0.0000    YZZ       0.0000
       ZZZ       4.8766
    Hexadecapole Moments (Debye-Ang^3)
      XXXX     -15.0528   XXXY      -0.0000   XXYY      -5.0176
      XYYY       0.0000   YYYY     -15.0528   XXXZ      -0.9522
      XXYZ       0.0000   XYYZ       0.9522   YYYZ       0.0000
      XXZZ     -15.9573   XYZZ      -0.0000   YYZZ     -15.9573
      XZZZ      -0.0000   YZZZ       0.0000   ZZZZ     -79.0764
 -----------------------------------------------------------------
 DrvMan is completing analytic gradient of the MP2 energy
 MP2 relaxed dipole moment
            1
    1   0.0000000
    2   0.0000000
    3  -1.3143659
	Magnitude:	 1.314 au	 3.341 Debye
 MP2 energy read as -139.375917
 Full Analytical Gradient of MP2 Energy (in au.)
             1             2             3             4             5
    1   -0.00000000    0.00000000   -0.00785359    0.00392679    0.00392679
    2   -0.00000000    0.00000000   -0.00000000    0.00680141   -0.00680141
    3    0.07054900   -0.12788208    0.01911103    0.01911103    0.01911103
 Gradient time:  CPU 0.00 s  wall 0.00 s
 Geometry Optimization Parameters
   NAtoms,    NIC,     NZ,  NCons,   NDum,   NFix, NCnnct, MaxDiis
        5      50       0       0       0       0       0       0

 Cartesian Hessian Update
 Hessian Updated using BFGS Update
**WARNING** Hereditary positive definiteness endangered


** GEOMETRY OPTIMIZATION IN DELOCALIZED INTERNAL COORDINATES **
   Searching for a Minimum

   Optimization Cycle:   2

                       Coordinates (Angstroms)
     ATOM                X               Y               Z
      1  F         0.0000000000    0.0000000000    0.9637830480
      2  C         0.0000000000    0.0000000000   -0.9993195991
      3  H         1.0690980811    0.0000000000   -0.9214995904
      4  H        -0.5345490405   -0.9258660973   -0.9214995904
      5  H        -0.5345490405    0.9258660973   -0.9214995904
   Point Group: c3v   Number of degrees of freedom:     3


   Energy is   -139.375916803

 GETINT wrote B to file, NVib is            3
 Hessian Updated using BFGS Update
**WARNING** Hereditary positive definiteness endangered

  3 Hessian modes will be used to form the next step
  Hessian Eigenvalues:
    -0.002357    0.031074    0.251207
**WARNING** Hessian does not have the Desired Local Structure

 Minimum Search - Taking Simple RFO Step
 Searching for Lamda that Minimizes Along All modes
 Value Taken    Lamda =  -0.05787024
 Calculated Step too Large.  Step scaled by  0.295047
 Step Taken.  Stepsize is  0.300000

                             Maximum     Tolerance    Cnvgd?
         Gradient           0.045733      0.000300      NO
         Displacement       0.243471      0.001200      NO
         Energy change     -0.016984      0.000001      NO


 New Cartesian Coordinates Obtained by Inverse Iteration

 Displacement from previous Coordinates is:  0.119805
 ----------------------------------------------------------------
             Standard Nuclear Orientation (Angstroms)
    I     Atom           X                Y                Z
 ----------------------------------------------------------------
    1      F       0.0000000000     0.0000000000     0.9201797337
    2      C       0.0000000000     0.0000000000    -0.9539946846
    3      H       1.0736707121     0.0000000000    -0.9220734571
    4      H      -0.5368353560    -0.9298261120    -0.9220734571
    5      H      -0.5368353560     0.9298261120    -0.9220734571
 ----------------------------------------------------------------
 Molecular Point Group                 C3v   NOp =  6
 Largest Abelian Subgroup              Cs    NOp =  2
 Nuclear Repulsion Energy =    31.6690542921 hartrees
 There are        9 alpha and        9 beta electrons
 Applying Cartesian multipole field
    Component          Value
    ---------          -----
     (2,0,0)        1.00000E-10
     (0,2,0)        2.00000E-10
     (0,0,2)       -3.00000E-10
 Nucleus-field energy     =    -0.0000000149 hartrees
 Requested basis set is 6-311G(d,p)
 There are 22 shells and 54 basis functions
 A cutoff of  1.0D-11 yielded    253 shell pairs
 There are      1550 function pairs (      1671 Cartesian)
 Smallest overlap matrix eigenvalue = 1.29E-02
 Guess MOs from SCF MO coefficient file
Reading MOs from coefficient file
Reading MOs from coefficient file
 A restricted Hartree-Fock SCF calculation will be
 performed using Pulay DIIS extrapolation
 SCF converges when DIIS error is below 1.0E-08
Geometry optimization detected.  Setting ReadMinima to 0
Setting SaveMinima to 0
 ---------------------------------------
  Cycle       Energy         DIIS Error
 ---------------------------------------
    1    -139.0026138757      3.06E-03
    2    -138.9878423453      6.76E-04
    3    -138.9879874105      2.51E-04
    4    -138.9880083670      1.23E-04
    5    -138.9880132894      2.77E-05
    6    -138.9880142052      1.24E-05
    7    -138.9880142946      3.24E-06
    8    -138.9880143058      4.04E-07
    9    -138.9880143060      5.51E-08
   10    -138.9880143060      6.69E-09 Convergence criterion met
 ---------------------------------------
 SCF time:  CPU 0.50 s  wall 0.50 s
 SCF   energy in the final basis set = -138.9880143060
 Total energy in the final basis set = -138.9880143060

 Components of the MP2 correlation energy:
        aaaa  correlation energy =        -0.0454829741 au
        abab  correlation energy =        -0.3141028880 au
        bbbb  correlation energy =        -0.0454829741 au
        non-Brillouin singles    =        -0.0000000000 au

 Total  MP2   correlation energy =        -0.4050688363 au
        MP2         total energy =      -139.3930831422 au

  Entering Z-vector solver.
OV_DIM:  Setting MaxSz  = 405
OV_DIM:  Setting MaxSpc = 405
   1         0           1      0.001103    0.001103
   2         0           1      0.000421    0.000421
   3         0           1      0.000145    0.000145
   4         0           1      0.000029    0.000029
   5         0           1      0.000003    0.000003
   6         1           0      0.000000    0.000000    Roots Converged
 Analysis of SCF Wavefunction

 --------------------------------------------------------------
             Orbital Energies (a.u.) and Symmetries
 --------------------------------------------------------------

 Alpha MOs, Restricted
 -- Occupied --                  
-26.163 -11.355  -1.415  -0.980  -0.661  -0.661  -0.511  -0.511
  1 A1    2 A1    3 A1    4 A1    1 E     1 E     2 E     2 E                  
 -0.488
  5 A1                                                                         
 -- Virtual --                   
  0.087   0.145   0.205   0.205   0.411   0.411   0.543   0.645
  6 A1    7 A1    3 E     3 E     4 E     4 E     8 A1    9 A1                 
  0.753   0.753   0.907   1.145   1.145   1.383   1.450   1.450
  5 E     5 E    10 A1    6 E     6 E    11 A1    7 E     7 E                  
  1.606   1.616   1.616   1.626   1.931   2.057   2.086   2.086
  1 A2    8 E     8 E    12 A1   13 A1   14 A1    9 E     9 E                  
  2.189   2.189   2.667   2.667   2.698   2.910   2.910   3.003
 10 E    10 E    11 E    11 E    15 A1   12 E    12 E    16 A1                 
  3.120   4.042   4.042   4.358   4.358   4.384   4.384   4.556
 17 A1   13 E    13 E    14 E    14 E    15 E    15 E    18 A1                 
  6.811   6.811   6.913  24.952  68.781
 16 E    16 E    19 A1   20 A1   21 A1                                         

 Beta MOs, Restricted
 -- Occupied --                  
-26.163 -11.355  -1.415  -0.980  -0.661  -0.661  -0.511  -0.511
  1 A1    2 A1    3 A1    4 A1    1 E     1 E     2 E     2 E                  
 -0.488
  5 A1                                                                         
 -- Virtual --                   
  0.087   0.145   0.205   0.205   0.411   0.411   0.543   0.645
  6 A1    7 A1    3 E     3 E     4 E     4 E     8 A1    9 A1                 
  0.753   0.753   0.907   1.145   1.145   1.383   1.450   1.450
  5 E     5 E    10 A1    6 E     6 E    11 A1    7 E     7 E                  
  1.606   1.616   1.616   1.626   1.931   2.057   2.086   2.086
  1 A2    8 E     8 E    12 A1   13 A1   14 A1    9 E     9 E                  
  2.189   2.189   2.667   2.667   2.698   2.910   2.910   3.003
 10 E    10 E    11 E    11 E    15 A1   12 E    12 E    16 A1                 
  3.120   4.042   4.042   4.358   4.358   4.384   4.384   4.556
 17 A1   13 E    13 E    14 E    14 E    15 E    15 E    18 A1                 
  6.811   6.811   6.913  24.952  68.781
 16 E    16 E    19 A1   20 A1   21 A1                                         
 --------------------------------------------------------------

          Ground-State Mulliken Net Atomic Charges

     Atom                 Charge (a.u.)
  ----------------------------------------
      1 F                    -0.415352
      2 C                    -0.089055
      3 H                     0.168136
      4 H                     0.168136
      5 H                     0.168136
  ----------------------------------------
  Sum of atomic charges =     0.000000

 -----------------------------------------------------------------
                    Cartesian Multipole Moments
 -----------------------------------------------------------------
    Charge (ESU x 10^10)
                 0.0000
    Dipole Moment (Debye)
         X       0.0000      Y       0.0000      Z      -3.2355
       Tot       3.2355
    Quadrupole Moments (Debye-Ang)
        XX     -11.3446     XY      -0.0000     YY     -11.3446
        XZ      -0.0000     YZ      -0.0000     ZZ     -12.6360
    Octopole Moments (Debye-Ang^2)
       XXX       1.1180    XXY      -0.0000    XYY      -1.1180
       YYY      -0.0000    XXZ       1.1660    XYZ       0.0000
       YYZ       1.1660    XZZ       0.0000    YZZ      -0.0000
       ZZZ       4.9762
    Hexadecapole Moments (Debye-Ang^3)
      XXXX     -15.1134   XXXY       0.0000   XXYY      -5.0378
      XYYY      -0.0000   YYYY     -15.1134   XXXZ      -0.9647
      XXYZ       0.0000   XYYZ       0.9647   YYYZ       0.0000
      XXZZ     -15.0121   XYZZ      -0.0000   YYZZ     -15.0121
      XZZZ      -0.0000   YZZZ       0.0000   ZZZZ     -73.7899
 -----------------------------------------------------------------
 DrvMan is completing analytic gradient of the MP2 energy
 MP2 relaxed dipole moment
            1
    1   0.0000000
    2   0.0000000
    3  -1.2729347
	Magnitude:	 1.273 au	 3.235 Debye
 MP2 energy read as -139.393083
 Full Analytical Gradient of MP2 Energy (in au.)
             1             2             3             4             5
    1   -0.00000000    0.00000000   -0.00494491    0.00247246    0.00247246
    2   -0.00000000    0.00000000   -0.00000000    0.00428242   -0.00428242
    3    0.07154118   -0.13045067    0.01963650    0.01963650    0.01963650
 Gradient time:  CPU 0.00 s  wall 0.00 s
 Geometry Optimization Parameters
   NAtoms,    NIC,     NZ,  NCons,   NDum,   NFix, NCnnct, MaxDiis
        5      50       0       0       0       0       0       0

 Cartesian Hessian Update
 Hessian Updated using BFGS Update
**WARNING** Hereditary positive definiteness endangered


** GEOMETRY OPTIMIZATION IN DELOCALIZED INTERNAL COORDINATES **
   Searching for a Minimum

   Optimization Cycle:   3

                       Coordinates (Angstroms)
     ATOM                X               Y               Z
      1  F         0.0000000000    0.0000000000    0.9201797337
      2  C         0.0000000000    0.0000000000   -0.9539946846
      3  H         1.0736707121    0.0000000000   -0.9220734571
      4  H        -0.5368353560   -0.9298261120   -0.9220734571
      5  H        -0.5368353560    0.9298261120   -0.9220734571
   Point Group: c3v   Number of degrees of freedom:     3


   Energy is   -139.393083142

 GETINT wrote B to file, NVib is            3
 Hessian Updated using BFGS Update
**WARNING** Hereditary positive definiteness endangered

  3 Hessian modes will be used to form the next step
  Hessian Eigenvalues:
    -0.002086    0.031833    0.273916
**WARNING** Hessian does not have the Desired Local Structure

 Minimum Search - Taking Simple RFO Step
 Searching for Lamda that Minimizes Along All modes
 Value Taken    Lamda =  -0.05842194
 Calculated Step too Large.  Step scaled by  0.295223
 Step Taken.  Stepsize is  0.300000

                             Maximum     Tolerance    Cnvgd?
         Gradient           0.046314      0.000300      NO
         Displacement       0.243940      0.001200      NO
         Energy change     -0.017166      0.000001      NO


 New Cartesian Coordinates Obtained by Inverse Iteration

 Displacement from previous Coordinates is:  0.119121
 ----------------------------------------------------------------
             Standard Nuclear Orientation (Angstroms)
    I     Atom           X                Y                Z
 ----------------------------------------------------------------
    1      F       0.0000000000     0.0000000000     0.8769957083
    2      C       0.0000000000     0.0000000000    -0.9083964662
    3      H       1.0767030483     0.0000000000    -0.9228781881
    4      H      -0.5383515241    -0.9324521922    -0.9228781881
    5      H      -0.5383515241     0.9324521922    -0.9228781881
 ----------------------------------------------------------------
 Molecular Point Group                 C3v   NOp =  6
 Largest Abelian Subgroup              Cs    NOp =  2
 Nuclear Repulsion Energy =    32.5146350595 hartrees
 There are        9 alpha and        9 beta electrons
 Applying Cartesian multipole field
    Component          Value
    ---------          -----
     (2,0,0)        1.00000E-10
     (0,2,0)        2.00000E-10
     (0,0,2)       -3.00000E-10
 Nucleus-field energy     =    -0.0000000136 hartrees
 Requested basis set is 6-311G(d,p)
 There are 22 shells and 54 basis functions
 A cutoff of  1.0D-11 yielded    253 shell pairs
 There are      1550 function pairs (      1671 Cartesian)
 Smallest overlap matrix eigenvalue = 1.30E-02
 Guess MOs from SCF MO coefficient file
Reading MOs from coefficient file
Reading MOs from coefficient file
 A restricted Hartree-Fock SCF calculation will be
 performed using Pulay DIIS extrapolation
 SCF converges when DIIS error is below 1.0E-08
Geometry optimization detected.  Setting ReadMinima to 0
Setting SaveMinima to 0
 ---------------------------------------
  Cycle       Energy         DIIS Error
 ---------------------------------------
    1    -139.0214123684      3.57E-03
    2    -139.0057983659      7.30E-04
    3    -139.0059677019      2.82E-04
    4    -139.0059923060      1.27E-04
    5    -139.0059976404      2.87E-05
    6    -139.0059985324      1.19E-05
    7    -139.0059986137      3.14E-06
    8    -139.0059986242      3.95E-07
    9    -139.0059986243      5.24E-08
   10    -139.0059986243      5.99E-09 Convergence criterion met
 ---------------------------------------
 SCF time:  CPU 0.48 s  wall 0.49 s
 SCF   energy in the final basis set = -139.0059986243
 Total energy in the final basis set = -139.0059986243

 Components of the MP2 correlation energy:
        aaaa  correlation energy =        -0.0455362620 au
        abab  correlation energy =        -0.3132744304 au
        bbbb  correlation energy =        -0.0455362620 au
        non-Brillouin singles    =        -0.0000000000 au

 Total  MP2   correlation energy =        -0.4043469544 au
        MP2         total energy =      -139.4103455787 au

  Entering Z-vector solver.
OV_DIM:  Setting MaxSz  = 405
OV_DIM:  Setting MaxSpc = 405
   1         0           1      0.000917    0.000917
   2         0           1      0.000340    0.000340
   3         0           1      0.000118    0.000118
   4         0           1      0.000024    0.000024
   5         0           1      0.000003    0.000003
   6         1           0      0.000000    0.000000    Roots Converged
 Analysis of SCF Wavefunction

 --------------------------------------------------------------
             Orbital Energies (a.u.) and Symmetries
 --------------------------------------------------------------

 Alpha MOs, Restricted
 -- Occupied --                  
-26.178 -11.345  -1.435  -0.972  -0.657  -0.657  -0.522  -0.522
  1 A1    2 A1    3 A1    4 A1    1 E     1 E     2 E     2 E                  
 -0.510
  5 A1                                                                         
 -- Virtual --                   
  0.116   0.147   0.206   0.206   0.418   0.418   0.549   0.646
  6 A1    7 A1    3 E     3 E     4 E     4 E     8 A1    9 A1                 
  0.758   0.758   0.901   1.144   1.144   1.375   1.463   1.463
  5 E     5 E    10 A1    6 E     6 E    11 A1    7 E     7 E                  
  1.610   1.623   1.623   1.655   1.950   2.067   2.097   2.097
  1 A2    8 E     8 E    12 A1   13 A1   14 A1    9 E     9 E                  
  2.188   2.188   2.672   2.672   2.691   2.915   2.915   2.995
 10 E    10 E    11 E    11 E    15 A1   12 E    12 E    16 A1                 
  3.119   4.024   4.024   4.344   4.344   4.404   4.404   4.651
 17 A1   13 E    13 E    14 E    14 E    15 E    15 E    18 A1                 
  6.801   6.801   6.897  24.954  68.779
 16 E    16 E    19 A1   20 A1   21 A1                                         

 Beta MOs, Restricted
 -- Occupied --                  
-26.178 -11.345  -1.435  -0.972  -0.657  -0.657  -0.522  -0.522
  1 A1    2 A1    3 A1    4 A1    1 E     1 E     2 E     2 E                  
 -0.510
  5 A1                                                                         
 -- Virtual --                   
  0.116   0.147   0.206   0.206   0.418   0.418   0.549   0.646
  6 A1    7 A1    3 E     3 E     4 E     4 E     8 A1    9 A1                 
  0.758   0.758   0.901   1.144   1.144   1.375   1.463   1.463
  5 E     5 E    10 A1    6 E     6 E    11 A1    7 E     7 E                  
  1.610   1.623   1.623   1.655   1.950   2.067   2.097   2.097
  1 A2    8 E     8 E    12 A1   13 A1   14 A1    9 E     9 E                  
  2.188   2.188   2.672   2.672   2.691   2.915   2.915   2.995
 10 E    10 E    11 E    11 E    15 A1   12 E    12 E    16 A1                 
  3.119   4.024   4.024   4.344   4.344   4.404   4.404   4.651
 17 A1   13 E    13 E    14 E    14 E    15 E    15 E    18 A1                 
  6.801   6.801   6.897  24.954  68.779
 16 E    16 E    19 A1   20 A1   21 A1                                         
 --------------------------------------------------------------

          Ground-State Mulliken Net Atomic Charges

     Atom                 Charge (a.u.)
  ----------------------------------------
      1 F                    -0.422301
      2 C                    -0.055754
      3 H                     0.159352
      4 H                     0.159352
      5 H                     0.159352
  ----------------------------------------
  Sum of atomic charges =    -0.000000

 -----------------------------------------------------------------
                    Cartesian Multipole Moments
 -----------------------------------------------------------------
    Charge (ESU x 10^10)
                 0.0000
    Dipole Moment (Debye)
         X       0.0000      Y      -0.0000      Z      -3.0808
       Tot       3.0808
    Quadrupole Moments (Debye-Ang)
        XX     -11.3469     XY       0.0000     YY     -11.3469
        XZ      -0.0000     YZ       0.0000     ZZ     -12.6115
    Octopole Moments (Debye-Ang^2)
       XXX       1.0959    XXY      -0.0000    XYY      -1.0959
       YYY      -0.0000    XXZ       1.1948    XYZ      -0.0000
       YYZ       1.1948    XZZ       0.0000    YZZ      -0.0000
       ZZZ       5.1521
    Hexadecapole Moments (Debye-Ang^3)
      XXXX     -15.2356   XXXY       0.0000   XXYY      -5.0785
      XYYY       0.0000   YYYY     -15.2356   XXXZ      -0.9624
      XXYZ       0.0000   XYYZ       0.9624   YYYZ       0.0000
      XXZZ     -14.1349   XYZZ       0.0000   YYZZ     -14.1349
      XZZZ      -0.0000   YZZZ       0.0000   ZZZZ     -68.8049
 -----------------------------------------------------------------
 DrvMan is completing analytic gradient of the MP2 energy
 MP2 relaxed dipole moment
            1
    1   0.0000000
    2  -0.0000000
    3  -1.2120863
	Magnitude:	 1.212 au	 3.081 Debye
 MP2 energy read as -139.410346
 Full Analytical Gradient of MP2 Energy (in au.)
             1             2             3             4             5
    1   -0.00000000    0.00000000   -0.00210337    0.00105169    0.00105169
    2    0.00000000   -0.00000000    0.00000000    0.00182157   -0.00182157
    3    0.07081158   -0.13097522    0.02005455    0.02005455    0.02005455
 Gradient time:  CPU 0.00 s  wall 0.00 s
 Geometry Optimization Parameters
   NAtoms,    NIC,     NZ,  NCons,   NDum,   NFix, NCnnct, MaxDiis
        5      50       0       0       0       0       0       0

 Cartesian Hessian Update
 Hessian Updated using BFGS Update


** GEOMETRY OPTIMIZATION IN DELOCALIZED INTERNAL COORDINATES **
   Searching for a Minimum

   Optimization Cycle:   4

                       Coordinates (Angstroms)
     ATOM                X               Y               Z
      1  F         0.0000000000    0.0000000000    0.8769957083
      2  C         0.0000000000    0.0000000000   -0.9083964662
      3  H         1.0767030483    0.0000000000   -0.9228781881
      4  H        -0.5383515241   -0.9324521922   -0.9228781881
      5  H        -0.5383515241    0.9324521922   -0.9228781881
   Point Group: c3v   Number of degrees of freedom:     3


   Energy is   -139.410345579

 GETINT wrote B to file, NVib is            3
 Hessian Updated using BFGS Update

  3 Hessian modes will be used to form the next step
  Hessian Eigenvalues:
     0.000138    0.035936    0.518096

 Minimum Search - Taking Simple RFO Step
 Searching for Lamda that Minimizes Along All modes


 ****************************************
 ** UNABLE TO DETERMINE Lamda IN FormD **
 ****************************************



 Taking Simple Newton-Raphson Step
 Calculated Step too Large.  Step scaled by  0.000723
 Step Taken.  Stepsize is  0.300000

                             Maximum     Tolerance    Cnvgd?
         Gradient           0.046754      0.000300      NO
         Displacement       0.247974      0.001200      NO
         Energy change     -0.017262      0.000001      NO


 New Cartesian Coordinates Obtained by Inverse Iteration

 Displacement from previous Coordinates is:  0.117863
 ----------------------------------------------------------------
             Standard Nuclear Orientation (Angstroms)
    I     Atom           X                Y                Z
 ----------------------------------------------------------------
    1      F       0.0000000000     0.0000000000     0.8355750152
    2      C       0.0000000000     0.0000000000    -0.8618649405
    3      H       1.0771115720     0.0000000000    -0.9245817990
    4      H      -0.5385557860    -0.9328059840    -0.9245817990
    5      H      -0.5385557860     0.9328059840    -0.9245817990
 ----------------------------------------------------------------
 Molecular Point Group                 C3v   NOp =  6
 Largest Abelian Subgroup              Cs    NOp =  2
 Nuclear Repulsion Energy =    33.4375907368 hartrees
 There are        9 alpha and        9 beta electrons
 Applying Cartesian multipole field
    Component          Value
    ---------          -----
     (2,0,0)        1.00000E-10
     (0,2,0)        2.00000E-10
     (0,0,2)       -3.00000E-10
 Nucleus-field energy     =    -0.0000000124 hartrees
 Requested basis set is 6-311G(d,p)
 There are 22 shells and 54 basis functions
 A cutoff of  1.0D-11 yielded    253 shell pairs
 There are      1550 function pairs (      1671 Cartesian)
 Smallest overlap matrix eigenvalue = 1.31E-02
 Guess MOs from SCF MO coefficient file
Reading MOs from coefficient file
Reading MOs from coefficient file
 A restricted Hartree-Fock SCF calculation will be
 performed using Pulay DIIS extrapolation
 SCF converges when DIIS error is below 1.0E-08
Geometry optimization detected.  Setting ReadMinima to 0
Setting SaveMinima to 0
 ---------------------------------------
  Cycle       Energy         DIIS Error
 ---------------------------------------
    1    -139.0427822713      4.15E-03
    2    -139.0238070830      8.00E-04
    3    -139.0240050026      3.17E-04
    4    -139.0240336949      1.28E-04
    5    -139.0240392001      2.93E-05
    6    -139.0240400216      1.12E-05
    7    -139.0240400916      3.11E-06
    8    -139.0240401014      4.00E-07
    9    -139.0240401016      4.91E-08
   10    -139.0240401016      5.32E-09 Convergence criterion met
 ---------------------------------------
 SCF time:  CPU 0.48 s  wall 0.48 s
 SCF   energy in the final basis set = -139.0240401016
 Total energy in the final basis set = -139.0240401016

 Components of the MP2 correlation energy:
        aaaa  correlation energy =        -0.0455678092 au
        abab  correlation energy =        -0.3121954098 au
        bbbb  correlation energy =        -0.0455678092 au
        non-Brillouin singles    =        -0.0000000000 au

 Total  MP2   correlation energy =        -0.4033310282 au
        MP2         total energy =      -139.4273711297 au

  Entering Z-vector solver.
OV_DIM:  Setting MaxSz  = 405
OV_DIM:  Setting MaxSpc = 405
   1         0           1      0.000750    0.000750
   2         0           1      0.000263    0.000263
   3         0           1      0.000093    0.000093
   4         0           1      0.000020    0.000020
   5         0           1      0.000002    0.000002
   6         1           0      0.000000    0.000000    Roots Converged
 Analysis of SCF Wavefunction

 --------------------------------------------------------------
             Orbital Energies (a.u.) and Symmetries
 --------------------------------------------------------------

 Alpha MOs, Restricted
 -- Occupied --                  
-26.194 -11.336  -1.457  -0.965  -0.656  -0.656  -0.535  -0.531
  1 A1    2 A1    3 A1    4 A1    1 E     1 E     5 A1    2 E                  
 -0.531
  2 E                                                                          
 -- Virtual --                   
  0.147   0.149   0.208   0.208   0.425   0.425   0.559   0.646
  6 A1    7 A1    3 E     3 E     4 E     4 E     8 A1    9 A1                 
  0.764   0.764   0.895   1.146   1.146   1.352   1.473   1.473
  5 E     5 E    10 A1    6 E     6 E    11 A1    7 E     7 E                  
  1.616   1.631   1.631   1.705   1.968   2.073   2.082   2.082
  1 A2    8 E     8 E    12 A1   13 A1   14 A1    9 E     9 E                  
  2.213   2.213   2.679   2.679   2.682   2.915   2.915   2.996
 10 E    10 E    11 E    11 E    15 A1   12 E    12 E    16 A1                 
  3.124   3.997   3.997   4.328   4.328   4.439   4.439   4.778
 17 A1   13 E    13 E    14 E    14 E    15 E    15 E    18 A1                 
  6.792   6.792   6.891  24.959  68.776
 16 E    16 E    19 A1   20 A1   21 A1                                         

 Beta MOs, Restricted
 -- Occupied --                  
-26.194 -11.336  -1.457  -0.965  -0.656  -0.656  -0.535  -0.531
  1 A1    2 A1    3 A1    4 A1    1 E     1 E     5 A1    2 E                  
 -0.531
  2 E                                                                          
 -- Virtual --                   
  0.147   0.149   0.208   0.208   0.425   0.425   0.559   0.646
  6 A1    7 A1    3 E     3 E     4 E     4 E     8 A1    9 A1                 
  0.764   0.764   0.895   1.146   1.146   1.352   1.473   1.473
  5 E     5 E    10 A1    6 E     6 E    11 A1    7 E     7 E                  
  1.616   1.631   1.631   1.705   1.968   2.073   2.082   2.082
  1 A2    8 E     8 E    12 A1   13 A1   14 A1    9 E     9 E                  
  2.213   2.213   2.679   2.679   2.682   2.915   2.915   2.996
 10 E    10 E    11 E    11 E    15 A1   12 E    12 E    16 A1                 
  3.124   3.997   3.997   4.328   4.328   4.439   4.439   4.778
 17 A1   13 E    13 E    14 E    14 E    15 E    15 E    18 A1                 
  6.792   6.792   6.891  24.959  68.776
 16 E    16 E    19 A1   20 A1   21 A1                                         
 --------------------------------------------------------------

          Ground-State Mulliken Net Atomic Charges

     Atom                 Charge (a.u.)
  ----------------------------------------
      1 F                    -0.420787
      2 C                    -0.026294
      3 H                     0.149027
      4 H                     0.149027
      5 H                     0.149027
  ----------------------------------------
  Sum of atomic charges =    -0.000000

 -----------------------------------------------------------------
                    Cartesian Multipole Moments
 -----------------------------------------------------------------
    Charge (ESU x 10^10)
                 0.0000
    Dipole Moment (Debye)
         X       0.0000      Y      -0.0000      Z      -2.8853
       Tot       2.8853
    Quadrupole Moments (Debye-Ang)
        XX     -11.3709     XY       0.0000     YY     -11.3709
        XZ      -0.0000     YZ       0.0000     ZZ     -12.5882
    Octopole Moments (Debye-Ang^2)
       XXX       1.0516    XXY      -0.0000    XYY      -1.0516
       YYY      -0.0000    XXZ       1.2457    XYZ      -0.0000
       YYZ       1.2457    XZZ       0.0000    YZZ      -0.0000
       ZZZ       5.3428
    Hexadecapole Moments (Debye-Ang^3)
      XXXX     -15.4057   XXXY       0.0000   XXYY      -5.1352
      XYYY       0.0000   YYYY     -15.4057   XXXZ      -0.9421
      XXYZ       0.0000   XYYZ       0.9421   YYYZ       0.0000
      XXZZ     -13.3246   XYZZ       0.0000   YYZZ     -13.3246
      XZZZ      -0.0000   YZZZ       0.0000   ZZZZ     -64.1373
 -----------------------------------------------------------------
 DrvMan is completing analytic gradient of the MP2 energy
 MP2 relaxed dipole moment
            1
    1   0.0000000
    2  -0.0000000
    3  -1.1351752
	Magnitude:	 1.135 au	 2.885 Debye
 MP2 energy read as -139.427371
 Full Analytical Gradient of MP2 Energy (in au.)
             1             2             3             4             5
    1   -0.00000000    0.00000000   -0.00004268    0.00002134    0.00002134
    2   -0.00000000    0.00000000   -0.00000000    0.00003696   -0.00003696
    3    0.06709044   -0.12752000    0.02014319    0.02014319    0.02014319
 Gradient time:  CPU 0.00 s  wall 0.00 s
 Geometry Optimization Parameters
   NAtoms,    NIC,     NZ,  NCons,   NDum,   NFix, NCnnct, MaxDiis
        5      50       0       0       0       0       0       0

 Cartesian Hessian Update
 Hessian Updated using BFGS Update


** GEOMETRY OPTIMIZATION IN DELOCALIZED INTERNAL COORDINATES **
   Searching for a Minimum

   Optimization Cycle:   5

                       Coordinates (Angstroms)
     ATOM                X               Y               Z
      1  F         0.0000000000    0.0000000000    0.8355750152
      2  C         0.0000000000    0.0000000000   -0.8618649405
      3  H         1.0771115720    0.0000000000   -0.9245817990
      4  H        -0.5385557860   -0.9328059840   -0.9245817990
      5  H        -0.5385557860    0.9328059840   -0.9245817990
   Point Group: c3v   Number of degrees of freedom:     3


   Energy is   -139.427371130

 GETINT wrote B to file, NVib is            3
 Hessian Updated using BFGS Update

  3 Hessian modes will be used to form the next step
  Hessian Eigenvalues:
     0.004775    0.039038    0.523138

 Minimum Search - Taking Simple RFO Step
 Searching for Lamda that Minimizes Along All modes
 Value Taken    Lamda =  -0.05338831
 Calculated Step too Large.  Step scaled by  0.313477
 Step Taken.  Stepsize is  0.300000

                             Maximum     Tolerance    Cnvgd?
         Gradient           0.046309      0.000300      NO
         Displacement       0.257343      0.001200      NO
         Energy change     -0.017026      0.000001      NO


 New Cartesian Coordinates Obtained by Inverse Iteration

 Displacement from previous Coordinates is:  0.116623
 ----------------------------------------------------------------
             Standard Nuclear Orientation (Angstroms)
    I     Atom           X                Y                Z
 ----------------------------------------------------------------
    1      F       0.0000000000     0.0000000000     0.7978479537
    2      C       0.0000000000     0.0000000000    -0.8134407128
    3      H       1.0762430322     0.0000000000    -0.9281475211
    4      H      -0.5381215161    -0.9320538065    -0.9281475211
    5      H      -0.5381215161     0.9320538065    -0.9281475211
 ----------------------------------------------------------------
 Molecular Point Group                 C3v   NOp =  6
 Largest Abelian Subgroup              Cs    NOp =  2
 Nuclear Repulsion Energy =    34.4111044535 hartrees
 There are        9 alpha and        9 beta electrons
 Applying Cartesian multipole field
    Component          Value
    ---------          -----
     (2,0,0)        1.00000E-10
     (0,2,0)        2.00000E-10
     (0,0,2)       -3.00000E-10
 Nucleus-field energy     =    -0.0000000113 hartrees
 Requested basis set is 6-311G(d,p)
 There are 22 shells and 54 basis functions
 A cutoff of  1.0D-11 yielded    253 shell pairs
 There are      1550 function pairs (      1671 Cartesian)
 Smallest overlap matrix eigenvalue = 1.31E-02
 Guess MOs from SCF MO coefficient file
Reading MOs from coefficient file
Reading MOs from coefficient file
 A restricted Hartree-Fock SCF calculation will be
 performed using Pulay DIIS extrapolation
 SCF converges when DIIS error is below 1.0E-08
Geometry optimization detected.  Setting ReadMinima to 0
Setting SaveMinima to 0
 ---------------------------------------
  Cycle       Energy         DIIS Error
 ---------------------------------------
    1    -139.0620979721      4.83E-03
    2    -139.0412561670      8.84E-04
    3    -139.0414852493      3.75E-04
    4    -139.0415210258      1.29E-04
    5    -139.0415266920      2.92E-05
    6    -139.0415274127      1.01E-05
    7    -139.0415274676      2.93E-06
    8    -139.0415274759      4.06E-07
    9    -139.0415274760      4.65E-08
   10    -139.0415274760      5.18E-09 Convergence criterion met
 ---------------------------------------
 SCF time:  CPU 0.49 s  wall 0.49 s
 SCF   energy in the final basis set = -139.0415274760
 Total energy in the final basis set = -139.0415274760

 Components of the MP2 correlation energy:
        aaaa  correlation energy =        -0.0455678651 au
        abab  correlation energy =        -0.3108941519 au
        bbbb  correlation energy =        -0.0455678651 au
        non-Brillouin singles    =        -0.0000000000 au

 Total  MP2   correlation energy =        -0.4020298821 au
        MP2         total energy =      -139.4435573581 au

  Entering Z-vector solver.
OV_DIM:  Setting MaxSz  = 405
OV_DIM:  Setting MaxSpc = 405
   1         0           1      0.000609    0.000609
   2         0           1      0.000193    0.000193
   3         0           1      0.000070    0.000070
   4         0           1      0.000016    0.000016
   5         0           1      0.000002    0.000002
   6         1           0      0.000000    0.000000    Roots Converged
 Analysis of SCF Wavefunction

 --------------------------------------------------------------
             Orbital Energies (a.u.) and Symmetries
 --------------------------------------------------------------

 Alpha MOs, Restricted
 -- Occupied --                  
-26.210 -11.326  -1.483  -0.959  -0.658  -0.658  -0.563  -0.536
  1 A1    2 A1    3 A1    4 A1    1 E     1 E     5 A1    2 E                  
 -0.536
  2 E                                                                          
 -- Virtual --                   
  0.152   0.180   0.209   0.209   0.432   0.432   0.576   0.646
  6 A1    7 A1    3 E     3 E     4 E     4 E     8 A1    9 A1                 
  0.767   0.767   0.889   1.150   1.150   1.321   1.478   1.478
  5 E     5 E    10 A1    6 E     6 E    11 A1    7 E     7 E                  
  1.624   1.642   1.642   1.765   1.985   2.054   2.054   2.072
  1 A2    8 E     8 E    12 A1   13 A1    9 E     9 E    14 A1                 
  2.250   2.250   2.669   2.687   2.687   2.908   2.908   3.016
 10 E    10 E    15 A1   11 E    11 E    12 E    12 E    16 A1                 
  3.138   3.967   3.967   4.313   4.313   4.486   4.486   4.920
 17 A1   13 E    13 E    14 E    14 E    15 E    15 E    18 A1                 
  6.783   6.783   6.907  24.960  68.771
 16 E    16 E    19 A1   20 A1   21 A1                                         

 Beta MOs, Restricted
 -- Occupied --                  
-26.210 -11.326  -1.483  -0.959  -0.658  -0.658  -0.563  -0.536
  1 A1    2 A1    3 A1    4 A1    1 E     1 E     5 A1    2 E                  
 -0.536
  2 E                                                                          
 -- Virtual --                   
  0.152   0.180   0.209   0.209   0.432   0.432   0.576   0.646
  6 A1    7 A1    3 E     3 E     4 E     4 E     8 A1    9 A1                 
  0.767   0.767   0.889   1.150   1.150   1.321   1.478   1.478
  5 E     5 E    10 A1    6 E     6 E    11 A1    7 E     7 E                  
  1.624   1.642   1.642   1.765   1.985   2.054   2.054   2.072
  1 A2    8 E     8 E    12 A1   13 A1    9 E     9 E    14 A1                 
  2.250   2.250   2.669   2.687   2.687   2.908   2.908   3.016
 10 E    10 E    15 A1   11 E    11 E    12 E    12 E    16 A1                 
  3.138   3.967   3.967   4.313   4.313   4.486   4.486   4.920
 17 A1   13 E    13 E    14 E    14 E    15 E    15 E    18 A1                 
  6.783   6.783   6.907  24.960  68.771
 16 E    16 E    19 A1   20 A1   21 A1                                         
 --------------------------------------------------------------

          Ground-State Mulliken Net Atomic Charges

     Atom                 Charge (a.u.)
  ----------------------------------------
      1 F                    -0.408149
      2 C                    -0.003775
      3 H                     0.137308
      4 H                     0.137308
      5 H                     0.137308
  ----------------------------------------
  Sum of atomic charges =     0.000000

 -----------------------------------------------------------------
                    Cartesian Multipole Moments
 -----------------------------------------------------------------
    Charge (ESU x 10^10)
                -0.0000
    Dipole Moment (Debye)
         X       0.0000      Y      -0.0000      Z      -2.6556
       Tot       2.6556
    Quadrupole Moments (Debye-Ang)
        XX     -11.4199     XY      -0.0000     YY     -11.4199
        XZ      -0.0000     YZ       0.0000     ZZ     -12.5732
    Octopole Moments (Debye-Ang^2)
       XXX       0.9886    XXY       0.0000    XYY      -0.9886
       YYY      -0.0000    XXZ       1.3059    XYZ      -0.0000
       YYZ       1.3059    XZZ       0.0000    YZZ      -0.0000
       ZZZ       5.5062
    Hexadecapole Moments (Debye-Ang^3)
      XXXX     -15.6558   XXXY       0.0000   XXYY      -5.2186
      XYYY       0.0000   YYYY     -15.6558   XXXZ      -0.9083
      XXYZ      -0.0000   XYYZ       0.9083   YYYZ       0.0000
      XXZZ     -12.5993   XYZZ       0.0000   YYZZ     -12.5993
      XZZZ      -0.0000   YZZZ       0.0000   ZZZZ     -59.8865
 -----------------------------------------------------------------
 DrvMan is completing analytic gradient of the MP2 energy
 MP2 relaxed dipole moment
            1
    1   0.0000000
    2  -0.0000000
    3  -1.0447823
	Magnitude:	 1.045 au	 2.656 Debye
 MP2 energy read as -139.443557
 Full Analytical Gradient of MP2 Energy (in au.)
             1             2             3             4             5
    1   -0.00000000   -0.00000000    0.00243155   -0.00121578   -0.00121578
    2   -0.00000000   -0.00000000    0.00000000   -0.00210579    0.00210579
    3    0.05878736   -0.11700509    0.01940591    0.01940591    0.01940591
 Gradient time:  CPU 0.00 s  wall 0.00 s
 Geometry Optimization Parameters
   NAtoms,    NIC,     NZ,  NCons,   NDum,   NFix, NCnnct, MaxDiis
        5      50       0       0       0       0       0       0

 Cartesian Hessian Update
 Hessian Updated using BFGS Update


** GEOMETRY OPTIMIZATION IN DELOCALIZED INTERNAL COORDINATES **
   Searching for a Minimum

   Optimization Cycle:   6

                       Coordinates (Angstroms)
     ATOM                X               Y               Z
      1  F         0.0000000000    0.0000000000    0.7978479537
      2  C         0.0000000000    0.0000000000   -0.8134407128
      3  H         1.0762430322    0.0000000000   -0.9281475211
      4  H        -0.5381215161   -0.9320538065   -0.9281475211
      5  H        -0.5381215161    0.9320538065   -0.9281475211
   Point Group: c3v   Number of degrees of freedom:     3


   Energy is   -139.443557358

 GETINT wrote B to file, NVib is            3
 Hessian Updated using BFGS Update

  3 Hessian modes will be used to form the next step
  Hessian Eigenvalues:
     0.012657    0.042749    0.524730

 Minimum Search - Taking Simple RFO Step
 Searching for Lamda that Minimizes Along All modes
 Value Taken    Lamda =  -0.04513211
 Calculated Step too Large.  Step scaled by  0.341284
 Step Taken.  Stepsize is  0.300000

                             Maximum     Tolerance    Cnvgd?
         Gradient           0.044046      0.000300      NO
         Displacement       0.268656      0.001200      NO
         Energy change     -0.016186      0.000001      NO


 New Cartesian Coordinates Obtained by Inverse Iteration

 Displacement from previous Coordinates is:  0.116531
 ----------------------------------------------------------------
             Standard Nuclear Orientation (Angstroms)
    I     Atom           X                Y                Z
 ----------------------------------------------------------------
    1      F       0.0000000000     0.0000000000     0.7655346548
    2      C       0.0000000000     0.0000000000    -0.7623839638
    3      H       1.0728477544     0.0000000000    -0.9343953377
    4      H      -0.5364238772    -0.9291134097    -0.9343953377
    5      H      -0.5364238772     0.9291134097    -0.9343953377
 ----------------------------------------------------------------
 Molecular Point Group                 C3v   NOp =  6
 Largest Abelian Subgroup              Cs    NOp =  2
 Nuclear Repulsion Energy =    35.4308331151 hartrees
 There are        9 alpha and        9 beta electrons
 Applying Cartesian multipole field
    Component          Value
    ---------          -----
     (2,0,0)        1.00000E-10
     (0,2,0)        2.00000E-10
     (0,0,2)       -3.00000E-10
 Nucleus-field energy     =    -0.0000000103 hartrees
 Requested basis set is 6-311G(d,p)
 There are 22 shells and 54 basis functions
 A cutoff of  1.0D-11 yielded    253 shell pairs
 There are      1550 function pairs (      1671 Cartesian)
 Smallest overlap matrix eigenvalue = 1.31E-02
 Guess MOs from SCF MO coefficient file
Reading MOs from coefficient file
Reading MOs from coefficient file
 A restricted Hartree-Fock SCF calculation will be
 performed using Pulay DIIS extrapolation
 SCF converges when DIIS error is below 1.0E-08
Geometry optimization detected.  Setting ReadMinima to 0
Setting SaveMinima to 0
 ---------------------------------------
  Cycle       Energy         DIIS Error
 ---------------------------------------
    1    -139.0812538933      5.56E-03
    2    -139.0570443362      9.80E-04
    3    -139.0573061912      4.42E-04
    4    -139.0573508484      1.24E-04
    5    -139.0573562486      2.83E-05
    6    -139.0573568388      8.73E-06
    7    -139.0573568780      2.64E-06
    8    -139.0573568844      4.07E-07
    9    -139.0573568845      4.44E-08
   10    -139.0573568845      5.40E-09 Convergence criterion met
 ---------------------------------------
 SCF time:  CPU 0.50 s  wall 0.50 s
 SCF   energy in the final basis set = -139.0573568845
 Total energy in the final basis set = -139.0573568845

 Components of the MP2 correlation energy:
        aaaa  correlation energy =        -0.0455402676 au
        abab  correlation energy =        -0.3093984948 au
        bbbb  correlation energy =        -0.0455402676 au
        non-Brillouin singles    =        -0.0000000000 au

 Total  MP2   correlation energy =        -0.4004790300 au
        MP2         total energy =      -139.4578359145 au

  Entering Z-vector solver.
OV_DIM:  Setting MaxSz  = 405
OV_DIM:  Setting MaxSpc = 405
   1         0           1      0.000498    0.000498
   2         0           1      0.000135    0.000135
   3         0           1      0.000049    0.000049
   4         0           1      0.000013    0.000013
   5         0           1      0.000002    0.000002
   6         1           0      0.000000    0.000000    Roots Converged
 Analysis of SCF Wavefunction

 --------------------------------------------------------------
             Orbital Energies (a.u.) and Symmetries
 --------------------------------------------------------------

 Alpha MOs, Restricted
 -- Occupied --                  
-26.226 -11.318  -1.512  -0.953  -0.664  -0.664  -0.593  -0.537
  1 A1    2 A1    3 A1    4 A1    1 E     1 E     5 A1    2 E                  
 -0.537
  2 E                                                                          
 -- Virtual --                   
  0.154   0.212   0.212   0.214   0.438   0.438   0.600   0.648
  6 A1    3 E     3 E     7 A1    4 E     4 E     8 A1    9 A1                 
  0.769   0.769   0.883   1.156   1.156   1.286   1.477   1.477
  5 E     5 E    10 A1    6 E     6 E    11 A1    7 E     7 E                  
  1.635   1.655   1.655   1.821   2.003   2.019   2.019   2.072
  1 A2    8 E     8 E    12 A1   13 A1    9 E     9 E    14 A1                 
  2.290   2.290   2.654   2.694   2.694   2.891   2.891   3.047
 10 E    10 E    15 A1   11 E    11 E    12 E    12 E    16 A1                 
  3.181   3.946   3.946   4.300   4.300   4.536   4.536   5.055
 17 A1   13 E    13 E    14 E    14 E    15 E    15 E    18 A1                 
  6.776   6.776   6.952  24.960  68.764
 16 E    16 E    19 A1   20 A1   21 A1                                         

 Beta MOs, Restricted
 -- Occupied --                  
-26.226 -11.318  -1.512  -0.953  -0.664  -0.664  -0.593  -0.537
  1 A1    2 A1    3 A1    4 A1    1 E     1 E     5 A1    2 E                  
 -0.537
  2 E                                                                          
 -- Virtual --                   
  0.154   0.212   0.212   0.214   0.438   0.438   0.600   0.648
  6 A1    3 E     3 E     7 A1    4 E     4 E     8 A1    9 A1                 
  0.769   0.769   0.883   1.156   1.156   1.286   1.477   1.477
  5 E     5 E    10 A1    6 E     6 E    11 A1    7 E     7 E                  
  1.635   1.655   1.655   1.821   2.003   2.019   2.019   2.072
  1 A2    8 E     8 E    12 A1   13 A1    9 E     9 E    14 A1                 
  2.290   2.290   2.654   2.694   2.694   2.891   2.891   3.047
 10 E    10 E    15 A1   11 E    11 E    12 E    12 E    16 A1                 
  3.181   3.946   3.946   4.300   4.300   4.536   4.536   5.055
 17 A1   13 E    13 E    14 E    14 E    15 E    15 E    18 A1                 
  6.776   6.776   6.952  24.960  68.764
 16 E    16 E    19 A1   20 A1   21 A1                                         
 --------------------------------------------------------------

          Ground-State Mulliken Net Atomic Charges

     Atom                 Charge (a.u.)
  ----------------------------------------
      1 F                    -0.382740
      2 C                     0.010880
      3 H                     0.123953
      4 H                     0.123953
      5 H                     0.123953
  ----------------------------------------
  Sum of atomic charges =     0.000000

 -----------------------------------------------------------------
                    Cartesian Multipole Moments
 -----------------------------------------------------------------
    Charge (ESU x 10^10)
                 0.0000
    Dipole Moment (Debye)
         X       0.0000      Y      -0.0000      Z      -2.3987
       Tot       2.3987
    Quadrupole Moments (Debye-Ang)
        XX     -11.4981     XY      -0.0000     YY     -11.4981
        XZ      -0.0000     YZ       0.0000     ZZ     -12.5610
    Octopole Moments (Debye-Ang^2)
       XXX       0.9011    XXY      -0.0000    XYY      -0.9011
       YYY      -0.0000    XXZ       1.3660    XYZ       0.0000
       YYZ       1.3660    XZZ       0.0000    YZZ      -0.0000
       ZZZ       5.5808
    Hexadecapole Moments (Debye-Ang^3)
      XXXX     -15.9812   XXXY       0.0000   XXYY      -5.3271
      XYYY       0.0000   YYYY     -15.9812   XXXZ      -0.8570
      XXYZ       0.0000   XYYZ       0.8570   YYYZ       0.0000
      XXZZ     -11.9652   XYZZ       0.0000   YYZZ     -11.9652
      XZZZ      -0.0000   YZZZ       0.0000   ZZZZ     -56.0775
 -----------------------------------------------------------------
 DrvMan is completing analytic gradient of the MP2 energy
 MP2 relaxed dipole moment
            1
    1   0.0000000
    2  -0.0000000
    3  -0.9437129
	Magnitude:	 0.944 au	 2.399 Debye
 MP2 energy read as -139.457836
 Full Analytical Gradient of MP2 Energy (in au.)
             1             2             3             4             5
    1   -0.00000000   -0.00000000    0.00472013   -0.00236006   -0.00236006
    2   -0.00000000    0.00000000    0.00000000   -0.00408775    0.00408775
    3    0.04393196   -0.09594444    0.01733749    0.01733749    0.01733749
 Gradient time:  CPU 0.00 s  wall 0.00 s
 Geometry Optimization Parameters
   NAtoms,    NIC,     NZ,  NCons,   NDum,   NFix, NCnnct, MaxDiis
        5      50       0       0       0       0       0       0

 Cartesian Hessian Update
 Hessian Updated using BFGS Update


** GEOMETRY OPTIMIZATION IN DELOCALIZED INTERNAL COORDINATES **
   Searching for a Minimum

   Optimization Cycle:   7

                       Coordinates (Angstroms)
     ATOM                X               Y               Z
      1  F         0.0000000000    0.0000000000    0.7655346548
      2  C         0.0000000000    0.0000000000   -0.7623839638
      3  H         1.0728477544    0.0000000000   -0.9343953377
      4  H        -0.5364238772   -0.9291134097   -0.9343953377
      5  H        -0.5364238772    0.9291134097   -0.9343953377
   Point Group: c3v   Number of degrees of freedom:     3


   Energy is   -139.457835914

 GETINT wrote B to file, NVib is            3
 Hessian Updated using BFGS Update

  3 Hessian modes will be used to form the next step
  Hessian Eigenvalues:
     0.022364    0.050788    0.530745

 Minimum Search - Taking Simple RFO Step
 Searching for Lamda that Minimizes Along All modes
 Value Taken    Lamda =  -0.03172054
 Calculated Step too Large.  Step scaled by  0.401493
 Step Taken.  Stepsize is  0.300000

                             Maximum     Tolerance    Cnvgd?
         Gradient           0.038506      0.000300      NO
         Displacement       0.284531      0.001200      NO
         Energy change     -0.014279      0.000001      NO


 New Cartesian Coordinates Obtained by Inverse Iteration

 Displacement from previous Coordinates is:  0.119694
 ----------------------------------------------------------------
             Standard Nuclear Orientation (Angstroms)
    I     Atom           X                Y                Z
 ----------------------------------------------------------------
    1      F       0.0000000000     0.0000000000     0.7431997107
    2      C       0.0000000000     0.0000000000    -0.7075486988
    3      H       1.0656816821     0.0000000000    -0.9452287780
    4      H      -0.5328408411    -0.9229074091    -0.9452287780
    5      H      -0.5328408411     0.9229074091    -0.9452287780
 ----------------------------------------------------------------
 Molecular Point Group                 C3v   NOp =  6
 Largest Abelian Subgroup              Cs    NOp =  2
 Nuclear Repulsion Energy =    36.4369798172 hartrees
 There are        9 alpha and        9 beta electrons
 Applying Cartesian multipole field
    Component          Value
    ---------          -----
     (2,0,0)        1.00000E-10
     (0,2,0)        2.00000E-10
     (0,0,2)       -3.00000E-10
 Nucleus-field energy     =    -0.0000000096 hartrees
 Requested basis set is 6-311G(d,p)
 There are 22 shells and 54 basis functions
 A cutoff of  1.0D-11 yielded    253 shell pairs
 There are      1550 function pairs (      1671 Cartesian)
 Smallest overlap matrix eigenvalue = 1.31E-02
 Guess MOs from SCF MO coefficient file
Reading MOs from coefficient file
Reading MOs from coefficient file
 A restricted Hartree-Fock SCF calculation will be
 performed using Pulay DIIS extrapolation
 SCF converges when DIIS error is below 1.0E-08
Geometry optimization detected.  Setting ReadMinima to 0
Setting SaveMinima to 0
 ---------------------------------------
  Cycle       Energy         DIIS Error
 ---------------------------------------
    1    -139.0953880185      6.12E-03
    2    -139.0694330241      1.05E-03
    3    -139.0697154820      5.07E-04
    4    -139.0697697446      1.12E-04
    5    -139.0697744222      2.60E-05
    6    -139.0697748585      7.14E-06
    7    -139.0697748834      2.20E-06
    8    -139.0697748875      3.84E-07
    9    -139.0697748876      4.17E-08
   10    -139.0697748876      5.59E-09 Convergence criterion met
 ---------------------------------------
 SCF time:  CPU 0.48 s  wall 0.48 s
 SCF   energy in the final basis set = -139.0697748876
 Total energy in the final basis set = -139.0697748876

 Components of the MP2 correlation energy:
        aaaa  correlation energy =        -0.0455093208 au
        abab  correlation energy =        -0.3079016551 au
        bbbb  correlation energy =        -0.0455093208 au
        non-Brillouin singles    =        -0.0000000000 au

 Total  MP2   correlation energy =        -0.3989202967 au
        MP2         total energy =      -139.4686951842 au

  Entering Z-vector solver.
OV_DIM:  Setting MaxSz  = 405
OV_DIM:  Setting MaxSpc = 405
   1         0           1      0.000421    0.000421
   2         0           1      0.000092    0.000092
   3         0           1      0.000032    0.000032
   4         0           1      0.000009    0.000009
   5         0           1      0.000001    0.000001
   6         1           0      0.000000    0.000000    Roots Converged
 Analysis of SCF Wavefunction

 --------------------------------------------------------------
             Orbital Energies (a.u.) and Symmetries
 --------------------------------------------------------------

 Alpha MOs, Restricted
 -- Occupied --                  
-26.242 -11.312  -1.543  -0.950  -0.676  -0.676  -0.626  -0.533
  1 A1    2 A1    3 A1    4 A1    1 E     1 E     5 A1    2 E                  
 -0.533
  2 E                                                                          
 -- Virtual --                   
  0.156   0.214   0.214   0.245   0.445   0.445   0.629   0.654
  6 A1    3 E     3 E     7 A1    4 E     4 E     8 A1    9 A1                 
  0.768   0.768   0.879   1.164   1.164   1.251   1.469   1.469
  5 E     5 E    10 A1    6 E     6 E    11 A1    7 E     7 E                  
  1.649   1.672   1.672   1.860   1.983   1.983   2.000   2.110
  1 A2    8 E     8 E    12 A1    9 E     9 E    13 A1   14 A1                 
  2.333   2.333   2.639   2.698   2.698   2.862   2.862   3.064
 10 E    10 E    15 A1   11 E    11 E    12 E    12 E    16 A1                 
  3.277   3.943   3.943   4.290   4.290   4.577   4.577   5.160
 17 A1   13 E    13 E    14 E    14 E    15 E    15 E    18 A1                 
  6.771   6.771   7.024  24.958  68.756
 16 E    16 E    19 A1   20 A1   21 A1                                         

 Beta MOs, Restricted
 -- Occupied --                  
-26.242 -11.312  -1.543  -0.950  -0.676  -0.676  -0.626  -0.533
  1 A1    2 A1    3 A1    4 A1    1 E     1 E     5 A1    2 E                  
 -0.533
  2 E                                                                          
 -- Virtual --                   
  0.156   0.214   0.214   0.245   0.445   0.445   0.629   0.654
  6 A1    3 E     3 E     7 A1    4 E     4 E     8 A1    9 A1                 
  0.768   0.768   0.879   1.164   1.164   1.251   1.469   1.469
  5 E     5 E    10 A1    6 E     6 E    11 A1    7 E     7 E                  
  1.649   1.672   1.672   1.860   1.983   1.983   2.000   2.110
  1 A2    8 E     8 E    12 A1    9 E     9 E    13 A1   14 A1                 
  2.333   2.333   2.639   2.698   2.698   2.862   2.862   3.064
 10 E    10 E    15 A1   11 E    11 E    12 E    12 E    16 A1                 
  3.277   3.943   3.943   4.290   4.290   4.577   4.577   5.160
 17 A1   13 E    13 E    14 E    14 E    15 E    15 E    18 A1                 
  6.771   6.771   7.024  24.958  68.756
 16 E    16 E    19 A1   20 A1   21 A1                                         
 --------------------------------------------------------------

          Ground-State Mulliken Net Atomic Charges

     Atom                 Charge (a.u.)
  ----------------------------------------
      1 F                    -0.345284
      2 C                     0.018512
      3 H                     0.108924
      4 H                     0.108924
      5 H                     0.108924
  ----------------------------------------
  Sum of atomic charges =     0.000000

 -----------------------------------------------------------------
                    Cartesian Multipole Moments
 -----------------------------------------------------------------
    Charge (ESU x 10^10)
                 0.0000
    Dipole Moment (Debye)
         X       0.0000      Y      -0.0000      Z      -2.1300
       Tot       2.1300
    Quadrupole Moments (Debye-Ang)
        XX     -11.6126     XY      -0.0000     YY     -11.6126
        XZ      -0.0000     YZ       0.0000     ZZ     -12.5439
    Octopole Moments (Debye-Ang^2)
       XXX       0.7857    XXY      -0.0000    XYY      -0.7857
       YYY      -0.0000    XXZ       1.4008    XYZ      -0.0000
       YYZ       1.4008    XZZ       0.0000    YZZ      -0.0000
       ZZZ       5.4533
    Hexadecapole Moments (Debye-Ang^3)
      XXXX     -16.3826   XXXY       0.0000   XXYY      -5.4609
      XYYY       0.0000   YYYY     -16.3826   XXXZ      -0.7876
      XXYZ       0.0000   XYYZ       0.7876   YYYZ       0.0000
      XXZZ     -11.4493   XYZZ       0.0000   YYZZ     -11.4493
      XZZZ      -0.0000   YZZZ       0.0000   ZZZZ     -52.8645
 -----------------------------------------------------------------
 DrvMan is completing analytic gradient of the MP2 energy
 MP2 relaxed dipole moment
            1
    1   0.0000000
    2  -0.0000000
    3  -0.8380165
	Magnitude:	 0.838 au	 2.130 Debye
 MP2 energy read as -139.468695
 Full Analytical Gradient of MP2 Energy (in au.)
             1             2             3             4             5
    1   -0.00000000   -0.00000000    0.00657242   -0.00328621   -0.00328621
    2    0.00000000   -0.00000000    0.00000000   -0.00569188    0.00569188
    3    0.02186643   -0.06085378    0.01299578    0.01299578    0.01299578
[...]
 MP2 relaxed dipole moment
            1
    1  -0.0000473
    2  -0.0000000
    3  -0.7341011
	Magnitude:	 0.734 au	 1.866 Debye
 MP2 energy read as -139.475564
 Full Analytical Gradient of MP2 Energy (in au.)
             1             2             3             4             5
    1   -0.00007089   -0.00012668    0.00018130    0.00000813    0.00000813
    2    0.00000000    0.00000000   -0.00000000   -0.00001576    0.00001576
    3    0.00014074    0.00007460   -0.00018115   -0.00001710   -0.00001710
 Gradient time:  CPU 0.00 s  wall 0.00 s
Dipole drv :
gprntSymmMtrx error report: 
 Final Hessian.
            1           2           3           4           5           6
    1   0.0474081   0.0000000  -0.0000012  -0.0679707   0.0000000   0.0000025
    2   0.0000000   0.0474098   0.0000000   0.0000000  -0.0679712   0.0000000
    3  -0.0000012   0.0000000   0.3923214   0.0000006   0.0000000  -0.2946356
    4  -0.0679707   0.0000000   0.0000006   0.6173901   0.0000000  -0.0000007
    5   0.0000000  -0.0679712   0.0000000   0.0000000   0.6173920   0.0000010
    6   0.0000025   0.0000000  -0.2946356  -0.0000007   0.0000010   0.5127255
    7   0.0102133   0.0000000   0.0028058  -0.3100868   0.0000000   0.0766868
    8   0.0000000   0.0034981   0.0000000   0.0000000  -0.0562001   0.0000000
    9   0.0375380  -0.0000001  -0.0325615   0.0670628   0.0000001  -0.0726968
   10   0.0051768   0.0029075  -0.0014032  -0.1196715  -0.1099363  -0.0383437
   11   0.0029073   0.0085340  -0.0024306  -0.1099359  -0.2466150  -0.0664130
   12  -0.0187698  -0.0325088  -0.0325598  -0.0335311  -0.0580781  -0.0726980
   13   0.0051768  -0.0029075  -0.0014028  -0.1196715   0.1099363  -0.0383433
   14  -0.0029073   0.0085340   0.0024291   0.1099359  -0.2466150   0.0664122
   15  -0.0187696   0.0325089  -0.0325633  -0.0335312   0.0580781  -0.0726956
            7           8           9          10          11          12
    1   0.0102133   0.0000000   0.0375380   0.0051768   0.0029073  -0.0187698
    2   0.0000000   0.0034981  -0.0000001   0.0029075   0.0085340  -0.0325088
    3   0.0028058   0.0000000  -0.0325615  -0.0014032  -0.0024306  -0.0325598
    4  -0.3100868   0.0000000   0.0670628  -0.1196715  -0.1099359  -0.0335311
    5   0.0000000  -0.0562001   0.0000001  -0.1099363  -0.2466150  -0.0580781
    6   0.0766868   0.0000000  -0.0726968  -0.0383437  -0.0664130  -0.0726980
    7   0.3241924   0.0000000  -0.0871026  -0.0121578   0.0020715   0.0038049
    8   0.0000000   0.0484914   0.0000001  -0.0267763   0.0021055   0.0079043
    9  -0.0871026   0.0000001   0.0929380  -0.0087475   0.0006570   0.0061601
   10  -0.0121578  -0.0267763  -0.0087475   0.1174166   0.1193820   0.0435514
   11   0.0020715   0.0021055   0.0006570   0.1193820   0.2552671   0.0754330
   12   0.0038049   0.0079043   0.0061601   0.0435514   0.0754330   0.0929380
   13  -0.0121578   0.0267763  -0.0087478   0.0092372  -0.0144239   0.0049427
   14  -0.0020715   0.0021055  -0.0006570   0.0144239  -0.0192894   0.0072471
   15   0.0038048  -0.0079040   0.0061601   0.0049428  -0.0072473   0.0061601
           13          14          15
    1   0.0051768  -0.0029073  -0.0187696
    2  -0.0029075   0.0085340   0.0325089
    3  -0.0014028   0.0024291  -0.0325633
    4  -0.1196715   0.1099359  -0.0335312
    5   0.1099363  -0.2466150   0.0580781
    6  -0.0383433   0.0664122  -0.0726956
    7  -0.0121578  -0.0020715   0.0038048
    8   0.0267763   0.0021055  -0.0079040
    9  -0.0087478  -0.0006570   0.0061601
   10   0.0092372   0.0144239   0.0049428
   11  -0.0144239  -0.0192894  -0.0072473
   12   0.0049427   0.0072471   0.0061601
   13   0.1174166  -0.1193820   0.0435512
   14  -0.1193820   0.2552671  -0.0754331
   15   0.0435512  -0.0754331   0.0929380
 ----------------------------------------------------------------
             Standard Nuclear Orientation (Angstroms)
    I     Atom           X                Y                Z
 ----------------------------------------------------------------
    1      F      -0.0000000000     0.0000000000     0.7501872809
    2      C      -0.0000000000     0.0000000000    -0.6303812687
    3      H       1.0304999423     0.0000000000    -0.9897993053
    4      H      -0.5152499712    -0.8924391286    -0.9897993053
    5      H      -0.5152499712     0.8924391286    -0.9897993053
 ----------------------------------------------------------------
 Nuclear Repulsion Energy =    37.3807942072 hartrees
 There are        9 alpha and        9 beta electrons
 old dipole drv.
            1           2           3           4           5           6
    1  -0.2880165   0.0000000   0.0000000   0.4206702   0.0000000  -0.0000001
    2   0.0000000  -0.2880295  -0.0000051   0.0000000   0.4206675  -0.0000354
    3  -0.0000169   0.0000000  -0.8739280   0.0000030   0.0000000   0.9439939
            7           8           9          10          11          12
    1  -0.1408436   0.0000000   0.0249144   0.0041247  -0.0836975  -0.0124551
    2  -0.0000000   0.0524474   0.0000024  -0.0836975  -0.0925209  -0.0215777
    3   0.0732396   0.0000000  -0.0233730  -0.0366198  -0.0634274  -0.0233730
           13          14          15
    1   0.0041247   0.0836975  -0.0124593
    2   0.0836975  -0.0925209   0.0215753
    3  -0.0366198   0.0634274  -0.0233730
 New transposed dipole drv.
            1           2           3
    1  -0.2880165   0.0000000  -0.0000169
    2   0.0000000  -0.2880295   0.0000000
    3   0.0000000  -0.0000051  -0.8739280
    4   0.4206702   0.0000000   0.0000030
    5   0.0000000   0.4206675   0.0000000
    6  -0.0000001  -0.0000354   0.9439939
    7  -0.1408436  -0.0000000   0.0732396
    8   0.0000000   0.0524474   0.0000000
    9   0.0249144   0.0000024  -0.0233730
   10   0.0041247  -0.0836975  -0.0366198
   11  -0.0836975  -0.0925209  -0.0634274
   12  -0.0124551  -0.0215777  -0.0233730
   13   0.0041247   0.0836975  -0.0366198
   14   0.0836975  -0.0925209   0.0634274
   15  -0.0124593   0.0215753  -0.0233730
FINAL TENSOR RESULT:
Order 2, Length 15
    Atom      X          Y          Z
     1 Order 1, Length 15
    Atom      X          Y          Z
     1    4.740806539958600e-02   0.000000000000000e+00  -1.181710705039905e-06
     2   -6.797068124427713e-02   0.000000000000000e+00   2.493702995962840e-06
     3    1.021333706892468e-02   0.000000000000000e+00   3.753802600071769e-02
     4    5.176783563986702e-03   2.907269018851152e-03  -1.876980137500397e-02
     5    5.176783568939192e-03  -2.907269030249705e-03  -1.876958892063452e-02

Order 1, Length 15
    Atom      X          Y          Z
     1    0.000000000000000e+00   4.740982916996059e-02   4.517992238562174e-08
     2    0.000000000000000e+00  -6.797117756660973e-02   9.663282911364515e-09
     3    0.000000000000000e+00   3.498078691919866e-03  -1.226605195495951e-07
     4    2.907461075624472e-03   8.533953514222436e-03  -3.250881635876031e-02
     5   -2.907461073019545e-03   8.533953509710576e-03   3.250893901927987e-02

Order 1, Length 15
    Atom      X          Y          Z
     1   -1.181710705039905e-06   4.517992238562174e-08   3.923213653922686e-01
     2    5.728215776810153e-07   0.000000000000000e+00  -2.946356498657825e-01
     3    2.805842022409325e-03   0.000000000000000e+00  -3.256153276955812e-02
     4   -1.403150754838677e-03  -2.430596445828492e-03  -3.255983732616051e-02
     5   -1.402838790271106e-03   2.429139373424883e-03  -3.256328413482784e-02


     2 Order 1, Length 15
    Atom      X          Y          Z
     1   -6.797068124427713e-02   0.000000000000000e+00   5.728215776810153e-07
     2    6.173901041582928e-01   0.000000000000000e+00  -6.706574086824072e-07
     3   -3.100868200310272e-01   0.000000000000000e+00   6.706276618569913e-02
     4   -1.196714503610030e-01  -1.099358943060971e-01  -3.353105346533265e-02
     5   -1.196714503697749e-01   1.099358943170005e-01  -3.353116928075912e-02

Order 1, Length 15
    Atom      X          Y          Z
     1    0.000000000000000e+00  -6.797117756660973e-02   0.000000000000000e+00
     2    0.000000000000000e+00   6.173919603833263e-01   1.016599263633660e-06
     3    0.000000000000000e+00  -5.620014457118176e-02   6.686613550363873e-08
     4   -1.099363331224947e-01  -2.466149857891638e-01  -5.807813029725160e-02
     5    1.099363331185664e-01  -2.466149857823600e-01   5.807806343111611e-02

Order 1, Length 15
    Atom      X          Y          Z
     1    2.493702995962840e-06   9.663282911364515e-09  -2.946356498657825e-01
     2   -6.706574086824072e-07   1.016599263633660e-06   5.127255065803650e-01
     3    7.668677648492458e-02   0.000000000000000e+00  -7.269676965526327e-02
     4   -3.834367562586162e-02  -6.641302841413999e-02  -7.269799473121663e-02
     5   -3.834334669174884e-02   6.641215430757468e-02  -7.269562464533488e-02


     3 Order 1, Length 15
    Atom      X          Y          Z
     1    1.021333706892468e-02   0.000000000000000e+00   2.805842022409325e-03
     2   -3.100868200310272e-01   0.000000000000000e+00   7.668677648492458e-02
     3    3.241923540584291e-01   0.000000000000000e+00  -8.710259822601173e-02
     4   -1.215778853604039e-02   2.071544517606294e-03   3.804943853445736e-03
     5   -1.215778853753230e-02  -2.071544518467651e-03   3.804805475276487e-03

Order 1, Length 15
    Atom      X          Y          Z
     1    0.000000000000000e+00   3.498078691919866e-03   0.000000000000000e+00
     2    0.000000000000000e+00  -5.620014457118176e-02   0.000000000000000e+00
     3    0.000000000000000e+00   4.849139150536095e-02   6.784491552427131e-08
     4   -2.677632728855147e-02   2.105524445046823e-03   7.904287804003209e-03
     5    2.677632728769012e-02   2.105524446538737e-03  -7.904024012238026e-03

Order 1, Length 15
    Atom      X          Y          Z
     1    3.753802600071769e-02  -1.226605195495951e-07  -3.256153276955812e-02
     2    6.706276618569913e-02   6.686613550363873e-08  -7.269676965526327e-02
     3   -8.710259822601173e-02   6.784491552427131e-08   9.293802773835609e-02
     4   -8.747488324358576e-03   6.569538080714509e-04   6.160071849102011e-03
     5   -8.747785963813160e-03  -6.569658649441437e-04   6.160071849102011e-03


     4 Order 1, Length 15
    Atom      X          Y          Z
     1    5.176783563986702e-03   2.907461075624472e-03  -1.403150754838677e-03
     2   -1.196714503610030e-01  -1.099363331224947e-01  -3.834367562586162e-02
     3   -1.215778853604039e-02  -2.677632728855147e-02  -8.747488324358576e-03
     4    1.174166321430192e-01   1.193820187090381e-01   4.355135786842627e-02
     5    9.237180937082340e-03   1.442393590394023e-02   4.942842110367424e-03

Order 1, Length 15
    Atom      X          Y          Z
     1    2.907269018851152e-03   8.533953514222436e-03  -2.430596445828492e-03
     2   -1.099358943060971e-01  -2.466149857891638e-01  -6.641302841413999e-02
     3    2.071544517606294e-03   2.105524445046823e-03   6.569538080714509e-04
     4    1.193820187090381e-01   2.552671134207708e-01   7.543302887689776e-02
     5   -1.442393590221753e-02  -1.928944502807591e-02  -7.247321939059067e-03

Order 1, Length 15
    Atom      X          Y          Z
     1   -1.876980137500397e-02  -3.250881635876031e-02  -3.255983732616051e-02
     2   -3.353105346533265e-02  -5.807813029725160e-02  -7.269799473121663e-02
     3    3.804943853445736e-03   7.904287804003209e-03   6.160071849102011e-03
     4    4.355135786842627e-02   7.543302887689776e-02   9.293802773835609e-02
     5    4.942682849082092e-03   7.247070204166573e-03   6.160071849102011e-03


     5 Order 1, Length 15
    Atom      X          Y          Z
     1    5.176783568939192e-03  -2.907461073019545e-03  -1.402838790271106e-03
     2   -1.196714503697749e-01   1.099363331185664e-01  -3.834334669174884e-02
     3   -1.215778853753230e-02   2.677632728769012e-02  -8.747785963813160e-03
     4    9.237180937082340e-03  -1.442393590221753e-02   4.942682849082092e-03
     5    1.174166321442368e-01  -1.193820187097411e-01   4.355124035758548e-02

Order 1, Length 15
    Atom      X          Y          Z
     1   -2.907269030249705e-03   8.533953509710576e-03   2.429139373424883e-03
     2    1.099358943170005e-01  -2.466149857823600e-01   6.641215430757468e-02
     3   -2.071544518467651e-03   2.105524446538737e-03  -6.569658649441437e-04
     4    1.442393590394023e-02  -1.928944502807591e-02   7.247070204166573e-03
     5   -1.193820187097411e-01   2.552671134195532e-01  -7.543309672181331e-02

Order 1, Length 15
    Atom      X          Y          Z
     1   -1.876958892063452e-02   3.250893901927987e-02  -3.256328413482784e-02
     2   -3.353116928075912e-02   5.807806343111611e-02  -7.269562464533488e-02
     3    3.804805475276487e-03  -7.904024012238026e-03   6.160071849102011e-03
     4    4.942842110367424e-03  -7.247321939059067e-03   6.160071849102011e-03
     5    4.355124035758548e-02  -7.543309672181331e-02   9.293802773835609e-02




 # Finishing finite difference calculation for IDERIV #
 ######################################################
 ######################################################
 Requested basis set is 6-311G(d,p)
 There are 22 shells and 54 basis functions
 **********************************************************************
 **                                                                  **
 **                       VIBRATIONAL ANALYSIS                       **
 **                       --------------------                       **
 **                                                                  **
 **        VIBRATIONAL FREQUENCIES (CM**-1) AND NORMAL MODES         **
 **     FORCE CONSTANTS (mDYN/ANGSTROM) AND REDUCED MASSES (AMU)     **
 **                  INFRARED INTENSITIES (KM/MOL)                   **
 **                                                                  **
 **********************************************************************


 Mode:                 1                      2                      3
 Frequency:      1108.19                1225.17                1225.17
 Force Cnst:      5.3842                 1.1150                 1.1150
 Red. Mass:       7.4412                 1.2607                 1.2607
 IR Active:          YES                    YES                    YES
 IR Intens:        0.000                  0.000                  0.000
 Raman Active:       YES                    YES                    YES
               X      Y      Z        X      Y      Z        X      Y      Z
 F         -0.000 -0.000 -0.415   -0.000  0.053 -0.000    0.053  0.000 -0.000
 C          0.000  0.000  0.551    0.000 -0.136  0.000   -0.136 -0.000  0.000
 H         -0.028 -0.000  0.417   -0.000  0.301 -0.000    0.117  0.000  0.741
 H          0.014  0.024  0.417   -0.080  0.163 -0.641    0.255 -0.080 -0.370
 H          0.014 -0.024  0.417    0.080  0.163  0.641    0.255  0.080 -0.370
 TransDip   0.000  0.000  0.000    0.000  0.000  0.000    0.000  0.000  0.000

 Mode:                 4                      5                      6
 Frequency:      1518.67                1518.67                1537.45
 Force Cnst:      1.4219                 1.4219                 1.6072
 Red. Mass:       1.0464                 1.0464                 1.1540
 IR Active:          YES                    YES                    YES
 IR Intens:        0.000                  0.000                  0.000
 Raman Active:       YES                    YES                    YES
               X      Y      Z        X      Y      Z        X      Y      Z
 F         -0.009  0.000  0.000   -0.000 -0.009  0.000   -0.000 -0.000 -0.013
 C         -0.058 -0.000  0.000    0.000 -0.058  0.000   -0.000 -0.000 -0.114
 H         -0.151  0.000 -0.346   -0.000  0.722 -0.000    0.211  0.000  0.533
 H          0.504 -0.378  0.173   -0.378  0.067  0.300   -0.105 -0.183  0.533
 H          0.504  0.378  0.173    0.378  0.067 -0.300   -0.105  0.183  0.533
 TransDip   0.000  0.000  0.000    0.000  0.000  0.000    0.000  0.000  0.000

 Mode:                 7                      8                      9
 Frequency:      3093.15                3191.88                3191.88
 Force Cnst:      5.7961                 6.6514                 6.6514
 Red. Mass:       1.0282                 1.1081                 1.1081
 IR Active:          YES                    YES                    YES
 IR Intens:        0.000                  0.000                  0.000
 Raman Active:       YES                    YES                    YES
               X      Y      Z        X      Y      Z        X      Y      Z
 F          0.000  0.000  0.001    0.001 -0.000 -0.000    0.000  0.001  0.000
 C          0.000 -0.000  0.043   -0.095 -0.000  0.000    0.000 -0.095 -0.000
 H          0.548 -0.000 -0.180    0.772 -0.000 -0.253   -0.000 -0.021  0.000
 H         -0.274 -0.475 -0.180    0.177  0.343  0.126    0.343  0.574  0.219
 H         -0.274  0.475 -0.180    0.177 -0.343  0.126   -0.343  0.574 -0.219
 TransDip   0.000  0.000  0.000    0.000  0.000  0.000    0.000  0.000  0.000

 STANDARD THERMODYNAMIC QUANTITIES AT   298.15 K  AND     1.00 ATM

   This Molecule has  0 Imaginary Frequencies
   Zero point vibrational energy:       25.175 kcal/mol

   Atom    1 Element F  Has Mass   18.99840
   Atom    2 Element C  Has Mass   12.00000
   Atom    3 Element H  Has Mass    1.00783
   Atom    4 Element H  Has Mass    1.00783
   Atom    5 Element H  Has Mass    1.00783
   Molecular Mass:    34.021890 amu
   Principal axes and moments of inertia in atomic units:
                             1           2           3
    Eigenvalues --       11.46574    70.08808    70.08808
          X               0.00000     0.00000     1.00000
          Y               0.00000     1.00000     0.00000
          Z               1.00000     0.00000     0.00000
   Rotational Symmetry Number is   3
   The Molecule is a Symmetric Top
   Translational Enthalpy:        0.889 kcal/mol
   Rotational Enthalpy:           0.889 kcal/mol
   Vibrational Enthalpy:         25.218 kcal/mol
   gas constant (RT):             0.592 kcal/mol
   Translational Entropy:        36.504  cal/mol.K
   Rotational Entropy:           16.488  cal/mol.K
   Vibrational Entropy:           0.167  cal/mol.K

   Total Enthalpy:               27.588 kcal/mol
   Total Entropy:                53.159  cal/mol.K

 ======================================================================

 STANDARD THERMODYNAMIC QUANTITIES FOR ANHARMONIC VIBRATION -- TOSH

   Zero point vibrational energy: ************ kcal/mol

   Vibrational Enthalpy:       Infinity kcal/mol
   Vibrational Entropy:             NaN  cal/mol.K

   Total Enthalpy:             Infinity kcal/mol
   Total Entropy:                   NaN  cal/mol.K

 ======================================================================

 STANDARD THERMODYNAMIC QUANTITIES FOR ANHARMONIC VIBRATION -- VPT2

   Zero point vibrational energy: ************ kcal/mol

   Vibrational Enthalpy:       Infinity kcal/mol
   Vibrational Entropy:             NaN  cal/mol.K

   Total Enthalpy:             Infinity kcal/mol
   Total Entropy:                   NaN  cal/mol.K

 ======================================================================

Archival summary:
1\1\Deborahs-MacBook-Air.local\FREQ\MP2\6-311G**\113\WedMay714:18:412014WedMay714:18:412014\0\\#,FREQ,MP2,6-311G**,\\0,1\C\H,1,1.09138\H,1,1.09138,2,109.714\H,1,1.09138,2,109.714,3,-120.599,0\F,1,1.38057,2,109.228,3,119.701,0\\HF=-139.07777\MP2=-139.475564\\@

 Total job time:  31.10s(wall), 31.31s(cpu) 
 Wed May  7 14:18:41 2014

        *************************************************************
        *                                                           *
        *  Thank you very much for using Q-Chem.  Have a nice day.  *
        *                                                           *
        *************************************************************


